ITEM: TIMESTEP
0
ITEM: NUMBER OF ATOMS
1372
ITEM: BOX BOUNDS pp pp pp
-2.0840171298419436e+00 2.3084017129841957e+01
-2.0840171298419436e+00 2.3084017129841957e+01
-2.0840171298419436e+00 2.3084017129841957e+01
ITEM: ATOMS id type xs ys zs
4 4 0.000175557 0.0706391 0.0699361
3 5 0.0738342 0.000687988 0.0709253
8 2 0.143678 0.0721508 0.0717482
6 4 0.21444 0.0712588 0.00141334
9 2 0.286137 0.000292761 0.00162825
12 2 0.286263 0.0715439 0.0712653
10 2 0.356002 0.0724808 0.00100893
14 4 0.427724 0.0710217 0.0715628
17 4 0.0718997 0.142616 0.0710441
22 3 0.145966 0.210788 0.070292
21 1 0.214814 0.143037 0.0715116
24 4 0.356179 0.213671 0.00225861
25 2 0.356183 0.142205 0.0716294
23 1 0.285639 0.14307 0.00129002
26 1 0.284388 0.213498 0.0723371
28 2 0.427493 0.212742 0.0716307
702 3 0.499412 0.143193 0.0709912
30 5 0.0734809 0.0732802 0.143588
32 5 0.00141958 0.0721549 0.216052
36 5 0.14281 0.0704534 0.214851
33 1 0.142012 0.000646193 0.143417
34 4 0.21481 0.070625 0.141629
38 4 0.355695 0.0717332 0.14242
40 3 0.283457 0.0682739 0.213768
42 5 0.429737 0.0719458 0.212979
44 3 0.0734255 0.211304 0.144781
45 2 0.0733703 0.143463 0.216093
46 4 0.000195622 0.214942 0.21645
47 1 0.143813 0.143111 0.143676
50 2 0.143594 0.213798 0.215415
48 2 0.214308 0.213224 0.143089
49 3 0.212667 0.144428 0.21342
52 4 0.356944 0.212719 0.141554
54 5 0.284497 0.213985 0.213853
53 5 0.356743 0.142307 0.213854
51 2 0.28443 0.142764 0.14204
56 3 0.432435 0.211083 0.214839
55 1 0.428759 0.142136 0.142992
729 4 0.499888 0.213318 0.142159
57 3 0.00128168 0.00331864 0.288982
58 1 0.0723459 0.0715792 0.285878
60 1 0.000491921 0.0717489 0.357472
59 1 0.0722163 0.000102039 0.356556
64 4 0.142924 0.0722545 0.355967
62 4 0.214949 0.0704319 0.286511
68 4 0.286041 0.0706807 0.358176
66 4 0.357401 0.070449 0.286226
70 1 0.429781 0.0699084 0.358411
71 4 0.000622977 0.142606 0.286168
72 2 0.0739467 0.213941 0.286434
73 2 0.0719469 0.142367 0.356382
74 3 0.00164083 0.214058 0.354788
75 2 0.143134 0.143494 0.285471
78 3 0.14364 0.211437 0.356665
76 2 0.21321 0.214297 0.286096
77 1 0.214766 0.143347 0.356462
81 3 0.358266 0.140832 0.358771
79 5 0.284489 0.143306 0.287238
82 2 0.285464 0.213842 0.357384
80 5 0.356934 0.213648 0.28667
84 5 0.430982 0.214876 0.356569
83 4 0.431159 0.141237 0.287182
86 3 0.0723863 0.071552 0.428948
100 1 0.000444827 0.0715288 0.498662
88 5 0.213075 0.0745891 0.427216
90 1 0.358241 0.0708061 0.428051
104 4 0.286155 0.0721909 0.496906
91 2 0.428273 0.000354479 0.42953
105 1 0.427439 0.071081 0.498422
93 5 0.0713411 0.213213 0.429027
106 2 0.0702822 0.142988 0.499798
94 1 0.142308 0.142967 0.428412
108 2 0.214538 0.143106 0.49948
95 4 0.214985 0.21362 0.427634
109 5 0.144421 0.212865 0.49806
97 3 0.356242 0.214101 0.428179
96 2 0.286277 0.14362 0.42778
110 2 0.357101 0.143381 0.498302
98 3 0.429281 0.141457 0.432008
112 2 0.428148 0.215129 0.498423
114 4 0.0711283 0.0707848 0.57013
113 4 0.000667428 0.00079803 0.570186
102 4 0.142756 0.0718056 0.500414
118 3 0.216043 0.0710097 0.571071
122 3 0.356264 0.0703468 0.568035
121 2 0.285629 0.000718113 0.570332
799 5 0.499805 0.0708178 0.56555
128 3 0.0694835 0.215979 0.570468
131 5 0.143624 0.14363 0.57112
132 2 0.214856 0.213629 0.571509
136 1 0.355861 0.215121 0.568942
111 3 0.284703 0.21256 0.501314
135 4 0.285733 0.142717 0.571449
139 4 0.427911 0.143933 0.568346
142 3 0.0725683 0.0678923 0.713049
116 4 0.000248246 0.0711134 0.643121
141 2 0.000682614 0.000535525 0.713425
144 3 0.212284 0.0720808 0.71623
120 3 0.143124 0.0694463 0.641746
146 3 0.357583 0.0708766 0.714338
123 3 0.353737 0.000470377 0.64201
124 2 0.285752 0.0716191 0.642534
145 3 0.28359 0.000156471 0.716991
827 5 0.4994 0.0693899 0.71394
147 2 0.42872 0.00140993 0.713702
126 5 0.42886 0.0710797 0.641046
800 2 0.499552 0.000391734 0.640628
129 5 0.0704207 0.142753 0.643769
149 5 0.071179 0.214459 0.714898
151 2 0.213981 0.21325 0.714544
134 5 0.143907 0.214187 0.64403
150 2 0.143672 0.141619 0.714103
133 1 0.214081 0.142643 0.642924
152 5 0.284171 0.141763 0.714054
153 3 0.35541 0.213433 0.715712
137 5 0.356409 0.145859 0.641342
138 1 0.284213 0.213972 0.642266
154 4 0.428803 0.14286 0.714333
140 3 0.428953 0.215719 0.642611
170 3 0.0769536 0.0721375 0.859561
155 3 0.0743989 0.00125865 0.786947
169 3 0.000191711 0.00293523 0.857515
158 2 0.144221 0.0708448 0.785495
174 4 0.214082 0.0713047 0.85711
160 4 0.285528 0.0723423 0.78809
178 1 0.355225 0.0718443 0.858645
159 4 0.357362 0.000147681 0.787495
181 2 0.428189 0.00171139 0.859425
161 3 0.426263 0.0716325 0.788426
855 2 0.49816 0.0720792 0.859176
841 5 0.499047 0.000504657 0.789344
162 5 0.072372 0.141228 0.784663
184 4 0.0730488 0.21307 0.856764
163 1 0.000672169 0.213146 0.785649
183 5 0.000404305 0.142487 0.857248
165 5 0.1452 0.2158 0.785109
187 2 0.144052 0.142287 0.857212
164 1 0.212787 0.142845 0.785691
188 4 0.21552 0.213856 0.857115
192 5 0.354378 0.213807 0.858319
167 4 0.284667 0.213228 0.786424
191 1 0.287876 0.143245 0.858274
166 2 0.356619 0.142404 0.786402
195 4 0.426954 0.142938 0.858982
168 5 0.428438 0.21483 0.785178
869 4 0.499294 0.214081 0.858602
172 4 0.000880278 0.0711199 0.930196
2 3 0.0760207 0.0714876 0.998967
176 1 0.143437 0.0714678 0.929072
180 4 0.285479 0.0709551 0.929287
179 5 0.35587 0.00179123 0.928718
856 5 0.498885 0.000183358 0.928465
182 1 0.427005 0.0721901 0.929963
687 5 0.499528 0.0720251 0.999969
185 2 0.0736952 0.142462 0.928509
16 5 0.0721259 0.213128 0.998243
186 1 0.00181196 0.213572 0.928717
15 5 0.000263637 0.142677 0.998408
190 5 0.14505 0.213204 0.928817
189 3 0.216194 0.142659 0.928975
19 2 0.144857 0.142568 0.999657
20 2 0.216172 0.213278 0.999978
193 1 0.355741 0.142646 0.930468
194 2 0.285558 0.214256 0.929423
196 3 0.427081 0.213179 0.930453
27 1 0.427737 0.142459 0.999834
701 5 0.499786 0.213918 0.99963
200 1 0.000808608 0.355393 0.0684643
199 4 0.0733699 0.284914 0.0690578
204 2 0.143398 0.357775 0.0690166
203 3 0.214867 0.284804 0.0711786
208 4 0.285994 0.357422 0.0718351
205 4 0.2867 0.285639 0.000532516
207 1 0.357255 0.28606 0.0733872
883 4 0.49803 0.357217 0.00134501
210 5 0.425815 0.357133 0.0734844
884 4 0.499694 0.285028 0.0716816
209 4 0.426558 0.285638 0.000885383
212 3 0.0705694 0.424356 0.0672956
345 3 0.00305343 0.499756 0.0684216
214 4 0.213834 0.429068 0.069996
216 4 0.356243 0.429264 0.0731097
897 3 0.498209 0.42917 0.074499
219 3 0.0751627 0.354887 0.141051
220 2 0.0736742 0.283684 0.215645
221 5 0.00261687 0.354092 0.214169
218 3 0.00241444 0.286039 0.14237
222 4 0.143883 0.283488 0.142268
225 3 0.141257 0.354972 0.217844
223 5 0.212087 0.359052 0.144319
224 2 0.213087 0.285209 0.215315
228 4 0.355331 0.285668 0.214519
227 4 0.355412 0.357568 0.144923
226 4 0.284103 0.286092 0.143641
229 1 0.282725 0.35886 0.215135
231 1 0.428817 0.357817 0.213279
230 5 0.428336 0.285535 0.144636
233 3 0.0717583 0.427254 0.217648
232 4 0.00245254 0.425875 0.141943
234 3 0.14097 0.429255 0.14231
375 3 0.14108 0.49931 0.217562
235 2 0.211511 0.429358 0.215954
374 3 0.212774 0.499543 0.141977
237 2 0.356489 0.42995 0.213292
236 4 0.284706 0.430049 0.143873
238 1 0.427853 0.429204 0.143803
918 5 0.498527 0.428624 0.210582
239 4 0.000557502 0.285989 0.286673
240 2 0.0724425 0.356534 0.288136
241 5 0.0729825 0.287254 0.358068
242 2 0.000996944 0.357268 0.359364
243 2 0.143078 0.284996 0.285851
246 1 0.142668 0.357804 0.357616
244 5 0.214031 0.358318 0.286758
245 4 0.213662 0.286128 0.357779
247 4 0.284476 0.285799 0.285528
250 4 0.286027 0.359293 0.356906
248 5 0.35509 0.360049 0.282918
249 4 0.357018 0.286592 0.355785
251 3 0.430467 0.286708 0.280875
252 4 0.426901 0.357689 0.356324
253 4 0.00115992 0.427338 0.287801
254 1 0.0718965 0.428128 0.359031
401 5 0.00206238 0.499961 0.359065
400 2 0.0725418 0.499584 0.288882
255 2 0.14215 0.428321 0.287793
256 1 0.212862 0.428619 0.357052
403 5 0.142581 0.498984 0.358749
257 1 0.284169 0.429528 0.284665
258 1 0.356357 0.429857 0.356808
405 3 0.282268 0.498023 0.355311
404 5 0.356177 0.499382 0.284915
259 4 0.427685 0.429181 0.283843
939 3 0.498649 0.427777 0.357234
406 5 0.428375 0.499944 0.356896
261 1 0.0718148 0.357819 0.428567
271 4 0.0711506 0.28639 0.497993
260 2 0.000347481 0.286109 0.428429
262 2 0.142432 0.286934 0.428229
263 5 0.212041 0.360163 0.429042
274 1 0.142172 0.358549 0.499631
273 4 0.213527 0.286232 0.498498
264 5 0.286316 0.287822 0.427645
265 1 0.356408 0.358606 0.428213
276 1 0.284161 0.358143 0.498587
946 5 0.499671 0.357207 0.428591
266 4 0.427924 0.286524 0.428753
956 1 0.499345 0.286237 0.499358
277 3 0.42975 0.36071 0.499371
267 2 0.00131759 0.428307 0.429356
268 1 0.142009 0.428544 0.428855
429 4 0.213798 0.499811 0.429209
269 2 0.284687 0.428922 0.4283
430 3 0.354769 0.49862 0.426658
280 3 0.354842 0.425599 0.498352
270 2 0.428066 0.428016 0.427322
282 5 0.0719808 0.355186 0.571241
285 3 0.14345 0.284387 0.570651
286 3 0.213754 0.35817 0.569894
289 2 0.283614 0.28541 0.570182
290 4 0.355158 0.358533 0.572077
275 5 0.3556 0.288757 0.501058
293 3 0.429335 0.283847 0.569393
278 3 0.0718872 0.427464 0.500271
297 2 0.143461 0.428332 0.570776
279 2 0.213073 0.429526 0.50051
299 5 0.283131 0.428365 0.571503
445 5 0.427731 0.494979 0.500935
301 1 0.42869 0.42837 0.57375
1142 3 0.498917 0.499043 0.574516
283 1 0.0714457 0.284896 0.643785
303 5 0.0718183 0.355029 0.714421
302 3 0.000268906 0.284829 0.714502
288 5 0.14281 0.357168 0.644021
304 1 0.14335 0.284961 0.713966
287 5 0.216088 0.28492 0.643073
305 4 0.21464 0.357874 0.714007
291 3 0.352971 0.283648 0.639197
292 1 0.284259 0.357606 0.642496
306 5 0.284909 0.285009 0.714892
307 3 0.354037 0.358511 0.715589
294 3 0.42859 0.356881 0.641196
308 4 0.426292 0.287346 0.713665
296 4 0.0714298 0.428135 0.642093
484 2 0.0724053 0.499659 0.71382
485 5 0.212795 0.49863 0.716093
310 2 0.142526 0.429043 0.714469
459 3 0.141503 0.499182 0.640587
298 2 0.213201 0.428915 0.642934
300 5 0.35554 0.428253 0.643948
486 1 0.356046 0.499496 0.713623
311 1 0.284917 0.428838 0.713417
981 2 0.499801 0.427072 0.642437
312 4 0.428343 0.426764 0.714738
313 2 0.0710041 0.28587 0.786016
323 3 0.0030703 0.285127 0.857637
324 2 0.0714071 0.356884 0.856301
314 1 0.000548631 0.356526 0.786054
316 3 0.144136 0.354533 0.785043
327 4 0.144328 0.286393 0.857822
315 1 0.215654 0.28654 0.785381
328 2 0.215284 0.356992 0.857709
318 3 0.284407 0.360601 0.788723
331 1 0.285168 0.286556 0.858358
317 4 0.355639 0.28674 0.787119
332 2 0.355628 0.357648 0.857561
319 1 0.428227 0.357063 0.787089
335 5 0.428288 0.286912 0.856686
998 2 0.499829 0.287258 0.785569
1009 2 0.499989 0.356163 0.857533
320 4 0.071586 0.428093 0.784966
512 4 0.0718591 0.498854 0.85798
337 1 0.000374886 0.428459 0.856096
498 5 0.00116184 0.499979 0.786193
339 5 0.143121 0.427505 0.856917
321 1 0.21275 0.428466 0.786176
499 1 0.142532 0.499688 0.785012
514 3 0.214956 0.499414 0.85389
341 1 0.285117 0.428955 0.856846
322 1 0.356676 0.427307 0.785846
516 2 0.355075 0.499569 0.855975
500 5 0.287721 0.497337 0.783756
343 5 0.427681 0.428137 0.855652
1005 3 0.499238 0.427095 0.786996
501 4 0.426997 0.499733 0.784497
325 3 0.0736062 0.287804 0.928401
198 2 0.0731055 0.357784 0.998089
326 4 1.79635e-05 0.358679 0.927526
330 1 0.143754 0.357983 0.927547
329 2 0.216114 0.286014 0.928332
202 5 0.214234 0.358275 0.997681
201 4 0.145408 0.28599 0.998793
334 1 0.286007 0.357014 0.928269
333 2 0.355678 0.286494 0.927839
206 1 0.356872 0.356537 0.999957
336 5 0.427898 0.356054 0.928818
338 2 0.0720471 0.427361 0.927514
344 4 0.0716185 0.499808 0.995097
211 1 0.00119418 0.427916 0.998833
340 4 0.215265 0.429863 0.928291
213 2 0.142404 0.42842 0.997912
342 3 0.353839 0.429005 0.926669
215 5 0.287889 0.428661 0.999979
1023 4 0.498176 0.429274 0.928472
217 3 0.425381 0.428636 0.999607
353 3 0.0718544 0.575342 0.0688564
347 5 0.139483 0.501139 0.069056
346 3 0.213212 0.501816 0.00111963
357 1 0.212237 0.571403 0.0720539
359 4 0.285618 0.57154 0.00281836
348 5 0.35536 0.502444 0.00144417
361 2 0.35763 0.571412 0.074318
349 1 0.285554 0.500389 0.0720851
1038 1 0.499784 0.5718 0.073018
363 4 0.428135 0.572289 0.00150535
350 3 0.42817 0.501865 0.0752749
1030 4 0.498091 0.500889 0.00133704
366 5 0.0728597 0.71478 0.0698862
358 2 0.142748 0.643046 0.0717303
367 1 0.142288 0.715291 0.00100714
356 5 0.211732 0.64128 0.00134746
368 4 0.213847 0.715078 0.071355
362 5 0.28501 0.643032 0.075073
360 4 0.356346 0.642666 0.00176308
370 4 0.356284 0.715486 0.0730143
364 1 0.427968 0.64309 0.0733982
371 3 0.426647 0.714722 0.00319821
1037 3 0.498867 0.644557 0.00526695
1051 2 0.499917 0.714624 0.0733245
372 3 0.0707168 0.500875 0.142427
381 3 0.0724081 0.573972 0.21674
373 5 0.00450986 0.500109 0.216308
379 5 0.000616088 0.574627 0.143715
383 4 0.142476 0.572635 0.143728
385 3 0.212865 0.573507 0.215475
377 4 0.283714 0.501074 0.215318
376 2 0.357333 0.501032 0.144019
389 3 0.35729 0.573767 0.213889
387 4 0.284576 0.570808 0.142211
391 2 0.428121 0.571586 0.143361
1058 2 0.499534 0.502048 0.143196
378 2 0.42828 0.50137 0.212688
380 5 0.0722866 0.645192 0.145859
394 2 0.0724646 0.715044 0.216518
386 1 0.144549 0.644494 0.215568
395 3 0.144122 0.714222 0.143197
384 1 0.213412 0.643407 0.142311
396 5 0.216619 0.714093 0.211876
398 4 0.356785 0.713866 0.214119
390 4 0.285905 0.642997 0.213392
397 1 0.285358 0.71592 0.142575
388 1 0.357578 0.64281 0.142226
399 3 0.429252 0.714657 0.14317
392 4 0.429456 0.642749 0.214927
1065 5 0.499649 0.641954 0.142135
409 1 0.0714967 0.571859 0.358958
407 4 0.000550656 0.572364 0.286855
402 1 0.212279 0.500315 0.286138
411 5 0.141665 0.573673 0.289017
413 4 0.214157 0.572168 0.35861
415 2 0.284679 0.571861 0.28553
417 4 0.355605 0.571531 0.356109
1086 3 0.499746 0.501101 0.283809
419 4 0.429259 0.572347 0.285565
408 3 0.070645 0.645342 0.285813
410 3 0.00127464 0.645304 0.358339
422 2 0.0716826 0.713777 0.357489
421 2 0.000247762 0.714163 0.285766
414 1 0.142152 0.643553 0.358953
423 3 0.142188 0.713187 0.287385
412 5 0.214525 0.644626 0.287299
424 2 0.214072 0.714118 0.359047
426 5 0.35704 0.715547 0.356593
418 5 0.285444 0.642903 0.358366
425 2 0.285774 0.714745 0.286399
416 1 0.354835 0.64328 0.286497
427 3 0.430295 0.713181 0.284412
420 4 0.429016 0.64365 0.355318
431 3 0.00153887 0.572779 0.430608
446 1 0.0703025 0.571822 0.499776
428 2 0.0718477 0.500116 0.429517
433 2 0.140764 0.572617 0.428323
448 4 0.212997 0.571826 0.499467
435 1 0.286932 0.572856 0.429793
437 3 0.430151 0.571445 0.427277
432 1 0.0709359 0.643676 0.428736
438 1 0.000564205 0.713978 0.428752
453 2 0.0709407 0.713038 0.499492
439 1 0.143034 0.71411 0.428444
434 1 0.213887 0.642758 0.428438
449 3 0.141339 0.642753 0.496252
454 3 0.214936 0.714818 0.497681
436 5 0.358995 0.643516 0.428922
440 2 0.284509 0.714707 0.428878
451 3 0.283593 0.640377 0.498685
441 1 0.428424 0.713088 0.429245
1118 3 0.499101 0.64479 0.428025
456 1 0.071121 0.500503 0.571346
442 5 0.000704086 0.500574 0.501435
463 1 0.000408352 0.57212 0.571739
458 1 0.214288 0.500181 0.572611
467 3 0.14178 0.574246 0.571731
443 4 0.142207 0.500879 0.500741
444 5 0.283322 0.501722 0.50064
460 5 0.35684 0.500113 0.572195
471 1 0.285669 0.571852 0.571675
450 5 0.358465 0.571568 0.500295
475 2 0.428682 0.570762 0.572315
1131 3 0.497994 0.571164 0.501958
447 1 0.000897211 0.643018 0.500648
464 3 0.0683417 0.642907 0.570907
477 2 0.000931399 0.713957 0.570683
479 5 0.142665 0.712103 0.571543
468 1 0.214985 0.642405 0.571637
472 5 0.356843 0.641581 0.57325
481 3 0.284036 0.714172 0.572927
455 4 0.356029 0.713529 0.500089
1149 3 0.499384 0.643035 0.572988
483 5 0.427309 0.714435 0.573139
452 2 0.429833 0.642909 0.501313
457 5 0.00132571 0.500624 0.640547
465 2 0.0711767 0.572197 0.641776
487 4 0.00118853 0.571403 0.714613
489 4 0.1414 0.571527 0.713638
469 3 0.214819 0.576419 0.64126
473 2 0.355489 0.570649 0.644168
491 2 0.285065 0.571898 0.714034
461 3 0.283629 0.501083 0.644416
493 1 0.426785 0.570449 0.713818
462 5 0.427866 0.500278 0.644726
1150 1 0.499568 0.571551 0.642698
478 1 0.0719819 0.713378 0.642829
488 2 0.0706171 0.643529 0.714421
494 1 0.000556625 0.714871 0.714885
470 2 0.14143 0.642501 0.64336
495 5 0.141471 0.713276 0.713502
480 5 0.21475 0.711284 0.643215
490 1 0.214131 0.642195 0.714569
492 1 0.355018 0.641677 0.714063
474 1 0.28652 0.642153 0.642922
496 2 0.285752 0.712164 0.713738
482 1 0.355365 0.714287 0.643084
497 3 0.424217 0.715422 0.712256
1174 2 0.498737 0.640532 0.712944
476 4 0.426712 0.641132 0.644176
1163 3 0.499811 0.714002 0.646592
502 2 0.0714087 0.571721 0.784542
519 4 3.9132e-05 0.570897 0.856172
523 5 0.141963 0.570062 0.854057
504 2 0.214381 0.571513 0.784295
527 2 0.28499 0.569838 0.855144
506 1 0.355284 0.570734 0.784485
1187 3 0.499785 0.571073 0.782512
531 5 0.427533 0.570713 0.855176
1198 2 0.49988 0.500272 0.855449
509 2 0.0703409 0.714427 0.784306
503 2 0.000908629 0.644212 0.784606
520 3 0.0692406 0.642553 0.854363
533 3 0.000400949 0.715382 0.856678
505 2 0.141527 0.642199 0.784155
535 5 0.14041 0.714173 0.855134
510 5 0.214511 0.712179 0.78438
524 5 0.214091 0.64117 0.855131
528 5 0.354618 0.642059 0.854337
507 1 0.285054 0.642019 0.785008
537 5 0.285154 0.714571 0.858816
511 2 0.355179 0.713901 0.783733
539 4 0.427867 0.713718 0.854199
508 5 0.425816 0.641497 0.782015
1194 5 0.498549 0.714332 0.781429
1205 2 0.499318 0.642483 0.853896
521 3 0.0704255 0.572385 0.928127
525 3 0.214361 0.568924 0.927706
515 2 0.143874 0.500197 0.928214
355 1 0.142426 0.571782 0.999814
517 1 0.286475 0.500951 0.927975
529 3 0.35499 0.569123 0.926876
518 4 0.428738 0.500858 0.927536
1206 5 0.499221 0.575192 0.928378
534 4 0.0722658 0.715408 0.929068
352 4 0.0711484 0.643742 0.99872
365 4 0.000662859 0.715931 0.998291
526 3 0.142587 0.642682 0.929197
536 4 0.211183 0.714888 0.928642
538 3 0.358043 0.71784 0.929071
369 3 0.285872 0.716031 0.996794
530 3 0.28523 0.641086 0.928846
532 3 0.425549 0.64275 0.927816
1219 3 0.498791 0.708631 0.927011
549 2 0.0719927 0.857091 0.0718794
541 3 0.000342653 0.786733 0.0723956
540 2 0.0719097 0.78791 0.000274281
543 2 0.142513 0.786818 0.0716145
551 3 0.142311 0.857907 0.00278978
553 2 0.212269 0.857249 0.0717102
545 5 0.285023 0.787148 0.0719116
555 1 0.284605 0.856172 0.000511753
557 2 0.356726 0.857229 0.0703283
544 1 0.355913 0.786262 0.000346322
546 4 0.428636 0.787573 0.0718721
550 4 0.000122062 0.928845 0.0716765
1 1 0.000152177 0.998684 0.000225189
548 5 0.0717111 0.929342 6.72431e-05
7 5 0.214228 0.998773 0.0721112
5 2 0.144163 0.999443 0.000571504
554 1 0.142396 0.928765 0.0715592
552 2 0.213746 0.927712 0.00118094
558 4 0.284874 0.927482 0.0714526
556 3 0.355565 0.927022 0.000491304
11 4 0.356475 0.999474 0.0723987
560 4 0.429391 0.927685 0.071339
13 4 0.427959 0.999213 0.000172465
561 4 0.0719763 0.786083 0.143648
562 4 0.000716975 0.785529 0.216258
570 3 0.0735081 0.857767 0.217466
568 3 0.000294516 0.858265 0.145041
564 3 0.142285 0.78568 0.215658
572 1 0.142515 0.856769 0.142677
563 1 0.212917 0.786245 0.142583
574 4 0.212899 0.85666 0.215269
578 1 0.357018 0.857929 0.215861
566 3 0.286782 0.786957 0.216004
576 4 0.283745 0.856982 0.143223
565 5 0.357529 0.789356 0.144318
580 4 0.43084 0.858127 0.145176
567 2 0.429069 0.785726 0.215116
569 3 0.0764044 0.927965 0.143716
29 3 0.00199661 0.998908 0.143553
31 1 0.0716137 0.999939 0.214566
571 3 0.00109226 0.928675 0.219986
575 1 0.142306 0.928923 0.215503
573 4 0.212469 0.928547 0.143728
35 2 0.213608 0.998059 0.214828
37 1 0.28555 0.99844 0.144099
577 3 0.357123 0.924509 0.14333
579 5 0.284946 0.9272 0.216059
39 5 0.357213 0.997885 0.213847
581 1 0.429203 0.928976 0.216077
41 4 0.428913 0.998401 0.142974
582 2 0.0716031 0.785269 0.28714
589 1 0.000455344 0.857469 0.286123
591 2 0.0711591 0.857241 0.356581
583 4 0.000460581 0.784886 0.3562
585 5 0.143074 0.786404 0.358818
593 4 0.143812 0.857527 0.287281
584 3 0.215984 0.785815 0.287986
595 1 0.215781 0.857902 0.35793
587 4 0.285392 0.785433 0.357452
597 1 0.286103 0.857719 0.28651
586 1 0.356898 0.785696 0.284709
599 3 0.355769 0.854874 0.357193
588 4 0.429046 0.784687 0.357924
601 4 0.428055 0.857073 0.285053
1268 3 0.498897 0.78649 0.283441
1276 3 0.498345 0.857207 0.359135
590 1 0.0722518 0.928613 0.286502
592 5 0.000140151 0.92923 0.353
596 5 0.143764 0.926862 0.357121
594 1 0.215386 0.928435 0.286078
61 3 0.141586 0.998028 0.284792
63 4 0.21511 0.998895 0.357307
600 1 0.286277 0.928002 0.357371
598 2 0.35637 0.928001 0.286891
65 2 0.286168 0.998375 0.286063
67 1 0.357307 0.999489 0.357507
602 3 0.426875 0.928913 0.358433
69 5 0.428206 0.999717 0.28649
603 4 0.0712542 0.785358 0.427557
606 3 0.000517586 0.85726 0.427304
617 4 0.0718286 0.857339 0.49979
608 1 0.143444 0.857207 0.427275
604 2 0.214643 0.785773 0.428397
614 5 0.141579 0.785475 0.499407
619 3 0.215926 0.854072 0.499371
610 1 0.285458 0.856852 0.428575
605 2 0.355963 0.784934 0.428845
615 2 0.284579 0.784982 0.499279
621 5 0.355382 0.85589 0.497824
612 1 0.427434 0.856641 0.429586
1289 4 0.499757 0.78406 0.430148
616 5 0.427835 0.784287 0.497493
1303 2 0.499549 0.856932 0.49983
607 5 0.0712183 0.928887 0.427131
99 1 0.0725651 0.9985 0.499484
85 4 0.000894855 0.999899 0.428184
609 2 0.215395 0.927416 0.428219
87 3 0.142958 0.999134 0.427989
101 3 0.215048 0.999859 0.498339
620 3 0.144318 0.926763 0.498973
611 5 0.357099 0.929437 0.427746
89 2 0.285983 0.999456 0.427828
103 1 0.356661 0.999674 0.498205
622 5 0.285623 0.928993 0.498366
623 2 0.428867 0.928422 0.498819
624 1 0.072184 0.78433 0.570824
631 3 0.00161925 0.856954 0.573417
613 3 0.0030248 0.78411 0.500899
635 2 0.143083 0.856362 0.571005
626 1 0.213695 0.784591 0.571661
639 1 0.285157 0.856355 0.570428
628 3 0.353349 0.786552 0.572737
643 3 0.429614 0.858333 0.569468
618 5 0.00045679 0.928388 0.501034
632 5 0.0734826 0.930244 0.571528
117 2 0.143935 0.999811 0.571045
636 5 0.215608 0.928061 0.571579
640 5 0.35535 0.929093 0.569639
1317 2 0.499377 0.928715 0.568922
125 4 0.428496 0.999533 0.568982
648 4 0.00117127 0.85756 0.713267
625 3 0.0050264 0.782179 0.642472
633 1 0.0715719 0.857861 0.641129
645 2 0.0705674 0.785517 0.714651
627 5 0.140028 0.786966 0.641674
650 4 0.141967 0.857639 0.714934
637 4 0.215407 0.85703 0.642148
646 5 0.217019 0.78636 0.713319
629 1 0.284852 0.784326 0.641699
652 3 0.284233 0.86122 0.715914
641 4 0.355115 0.85819 0.642702
647 3 0.352684 0.786172 0.714914
654 3 0.428916 0.856897 0.716232
1331 2 0.499091 0.787861 0.71374
630 3 0.428296 0.787441 0.642676
634 3 0.000567968 0.931694 0.642876
649 5 0.0727039 0.931186 0.714169
115 1 0.0732747 0.999727 0.6427
638 3 0.142934 0.928387 0.64249
119 5 0.216075 0.999029 0.643038
651 1 0.214381 0.929554 0.714623
143 1 0.144701 0.999706 0.714319
642 2 0.285715 0.928945 0.642886
653 5 0.358881 0.930567 0.715485
1335 3 0.496561 0.931319 0.714477
644 4 0.428737 0.929762 0.641236
659 2 0.0704035 0.85774 0.784706
666 3 0.0710636 0.788699 0.855399
655 2 0.00052095 0.78611 0.7853
656 4 0.143519 0.785878 0.783914
677 4 0.142969 0.858614 0.854578
661 1 0.214635 0.859393 0.784633
668 5 0.212897 0.78746 0.857819
657 4 0.283656 0.785615 0.786744
681 5 0.282922 0.85931 0.855681
663 2 0.357101 0.858244 0.784945
670 5 0.357375 0.787351 0.854276
685 1 0.428655 0.85583 0.856287
658 2 0.427514 0.786441 0.783804
1352 5 0.498832 0.787727 0.855252
1345 1 0.499447 0.857474 0.785774
674 4 0.0705398 0.928313 0.856865
662 2 0.143816 0.928982 0.785174
157 2 0.214044 0.999006 0.786812
678 1 0.21422 0.929509 0.856344
173 1 0.143308 0.998934 0.856413
664 1 0.285211 0.929411 0.785566
682 5 0.356439 0.928213 0.85732
177 1 0.286814 0.997999 0.856817
665 4 0.429355 0.929635 0.788937
547 3 0.00104638 0.857504 0.997598
675 1 0.0707005 0.857783 0.928827
667 2 0.000279031 0.786911 0.926796
669 3 0.141065 0.789835 0.930103
679 1 0.214888 0.857961 0.928605
542 4 0.213409 0.786467 0.999616
671 2 0.285243 0.787581 0.928433
683 4 0.35628 0.856509 0.928432
559 4 0.429044 0.85714 0.999804
672 3 0.430011 0.787527 0.928538
171 4 0.0729666 0.999128 0.928962
680 5 0.144512 0.926363 0.927584
175 4 0.213867 0.999938 0.928788
684 4 0.284186 0.929242 0.930218
686 4 0.429188 0.927115 0.927707
692 1 0.571784 0.0708506 0.0706477
691 3 0.640138 0.00176629 0.0707721
696 5 0.716342 0.0702346 0.0712458
700 3 0.855252 0.0685202 0.070858
698 2 0.927638 0.0699897 0.000110159
699 2 0.929046 0.000164407 0.0706431
706 2 0.571726 0.213705 0.0712267
703 2 0.57132 0.142819 0.0003461
704 1 0.641653 0.213557 0.000428679
705 5 0.642095 0.142021 0.0714619
707 3 0.713447 0.145247 4.77518e-05
710 2 0.713047 0.212593 0.0721162
714 3 0.858532 0.217341 0.0688398
709 4 0.787032 0.144791 0.0704812
18 3 0.99957 0.214494 0.0700262
713 5 0.926299 0.142656 0.067339
720 2 0.571454 0.0691023 0.21337
715 4 0.500485 0.0704333 0.142086
718 2 0.64238 0.0699338 0.142901
719 2 0.641523 0.000468272 0.214187
724 1 0.713896 0.0711314 0.212984
728 3 0.858805 0.0745945 0.216161
725 2 0.856317 0.00191735 0.143828
722 3 0.784453 0.0728652 0.145316
726 3 0.929317 0.068861 0.141888
727 5 0.928338 0.00012944 0.21664
730 2 0.50129 0.141315 0.21409
731 5 0.572209 0.141475 0.142739
734 4 0.571404 0.214179 0.21295
732 1 0.642555 0.213786 0.142424
733 4 0.642017 0.141279 0.213622
738 3 0.712599 0.212323 0.21702
735 2 0.713146 0.142175 0.143012
742 5 0.858505 0.212816 0.216521
736 3 0.783708 0.211725 0.144264
739 5 0.859874 0.143839 0.143366
737 1 0.784988 0.142649 0.213732
741 2 0.92885 0.142651 0.216313
740 3 0.929232 0.218156 0.144346
43 3 0.997565 0.143619 0.144416
743 5 0.503264 0.0693891 0.285877
744 5 0.501805 0.000861508 0.359006
748 1 0.572016 0.0712587 0.358583
746 3 0.638056 0.0696706 0.287199
752 4 0.713729 0.0721244 0.359489
747 2 0.641657 0.000504562 0.358227
749 4 0.71322 0.00221326 0.286272
750 3 0.785139 0.0746009 0.285348
756 4 0.855673 0.0709634 0.357342
754 1 0.928325 0.0712283 0.28668
755 1 0.928294 4.28417e-05 0.357104
757 2 0.501218 0.214916 0.285043
758 3 0.502386 0.142094 0.359418
759 4 0.570943 0.143622 0.285921
762 2 0.570638 0.214097 0.35717
760 3 0.641018 0.214268 0.286931
761 1 0.641181 0.143506 0.358927
763 4 0.711764 0.139295 0.286303
766 5 0.714697 0.212198 0.35484
764 3 0.787073 0.209951 0.287468
765 1 0.785879 0.143219 0.358166
770 2 0.856527 0.212885 0.357618
767 1 0.857396 0.142875 0.286252
768 1 0.927364 0.214554 0.287187
769 5 0.926768 0.141462 0.35548
771 3 0.501575 0.0704569 0.433723
772 1 0.571919 0.000121944 0.428798
787 1 0.572159 0.0716292 0.499368
773 1 0.641668 0.0720989 0.428771
786 3 0.641105 0.00228594 0.498699
789 1 0.713941 0.0711449 0.497774
775 3 0.786737 0.0709021 0.432109
777 5 0.927084 0.0687705 0.427802
779 1 0.571378 0.143572 0.429165
792 1 0.500802 0.144243 0.498879
794 5 0.570429 0.216813 0.499066
778 2 0.500063 0.21447 0.428869
780 3 0.64137 0.212676 0.428138
796 1 0.714788 0.214549 0.498358
781 5 0.714379 0.142769 0.4306
793 1 0.642259 0.143523 0.498791
795 1 0.786445 0.144109 0.499602
783 1 0.856422 0.143412 0.428584
782 1 0.786101 0.212718 0.428757
798 2 0.857338 0.214021 0.499756
92 5 0.999941 0.140634 0.428606
797 4 0.927719 0.142515 0.499733
784 3 0.927895 0.212884 0.428992
107 2 0.999589 0.213833 0.499041
801 2 0.570543 0.000381535 0.56997
802 4 0.643458 0.0717124 0.570698
791 4 0.857598 0.0716448 0.500744
806 5 0.784897 0.0704578 0.566361
810 4 0.928438 0.0720363 0.571463
813 4 0.500858 0.214821 0.570703
815 5 0.572564 0.143165 0.568819
816 3 0.644929 0.217057 0.569264
819 4 0.713961 0.142718 0.569086
823 2 0.855901 0.144776 0.571481
820 5 0.784433 0.216012 0.568524
127 5 0.998408 0.142945 0.570469
824 1 0.928497 0.213286 0.571215
804 5 0.571887 0.0698655 0.641889
829 1 0.643596 0.0713482 0.713924
808 5 0.715008 0.0714379 0.643793
812 3 0.855211 0.0719592 0.639358
832 4 0.856786 0.00109668 0.713852
807 1 0.78477 0.00104474 0.642081
831 3 0.786526 0.0711778 0.715394
811 4 0.928236 0.000592894 0.642078
833 5 0.928723 0.073505 0.714023
814 3 0.500051 0.143877 0.641989
818 2 0.571737 0.214865 0.642256
834 4 0.501298 0.216588 0.713733
835 5 0.571861 0.141528 0.714406
837 2 0.714651 0.142856 0.714911
817 5 0.643559 0.143342 0.644184
836 4 0.642005 0.214956 0.716329
822 3 0.715968 0.215889 0.645175
839 3 0.857289 0.143843 0.715027
826 4 0.857366 0.215202 0.642942
821 3 0.785076 0.144949 0.64329
838 1 0.785172 0.214168 0.714448
130 2 0.999209 0.213996 0.642477
148 1 0.999934 0.143874 0.714004
840 5 0.930463 0.212414 0.714526
825 1 0.928736 0.143588 0.642384
843 3 0.5703 0.0715582 0.78969
842 5 0.642322 0.000831539 0.786513
858 4 0.643108 0.0720594 0.858115
845 1 0.714101 0.0715648 0.784813
861 4 0.713188 0.00129141 0.856317
844 4 0.786884 0.00149841 0.787572
862 2 0.786194 0.0727308 0.856458
847 2 0.857977 0.073295 0.787306
865 1 0.857511 0.00145657 0.85753
156 4 0.999778 0.0714619 0.784587
846 4 0.927603 0.00191786 0.785458
866 1 0.928736 0.0728164 0.856737
848 5 0.500161 0.143176 0.787083
850 4 0.570629 0.215155 0.786458
871 1 0.569311 0.1428 0.857418
849 3 0.646092 0.140437 0.786373
872 4 0.643135 0.21306 0.855647
852 2 0.714184 0.213951 0.785123
875 2 0.715311 0.142804 0.856656
851 4 0.78495 0.143141 0.786177
876 3 0.784843 0.214839 0.858238
854 5 0.857362 0.214114 0.786323
879 2 0.857644 0.142738 0.857263
853 1 0.929042 0.143353 0.786411
880 3 0.927736 0.211929 0.859062
860 5 0.571379 0.0717624 0.926963
689 2 0.571953 0.000130737 0.998955
690 2 0.641901 0.071065 0.99983
864 5 0.712591 0.0706188 0.928597
693 1 0.713678 0.00083776 0.998641
859 1 0.642044 3.42191e-05 0.929271
694 3 0.785846 0.0698518 0.999112
868 3 0.858194 0.0699683 0.925918
867 4 0.930746 0.000164411 0.927711
870 1 0.500093 0.141785 0.930011
874 2 0.570041 0.213163 0.929532
873 4 0.642158 0.143959 0.928378
878 2 0.714879 0.212847 0.92811
882 2 0.855636 0.214382 0.926566
877 3 0.786703 0.142592 0.927045
708 4 0.787082 0.214519 0.998357
711 1 0.85729 0.141927 0.997644
881 3 0.927249 0.140615 0.929217
712 5 0.926916 0.215846 0.994843
888 5 0.571955 0.356586 0.0690865
887 5 0.642335 0.282882 0.0703158
892 5 0.715137 0.358306 0.0709992
891 4 0.784233 0.283829 0.0709709
896 5 0.857043 0.353954 0.0702034
895 2 0.929801 0.285085 0.0690065
1034 1 0.715345 0.499251 0.0719813