ITEM: TIMESTEP
10
ITEM: NUMBER OF ATOMS
1372
ITEM: BOX BOUNDS pp pp pp
-2.1767822747648022e+00 2.3176782274764680e+01
-2.1767822747648022e+00 2.3176782274764680e+01
-2.1767822747648022e+00 2.3176782274764680e+01
ITEM: ATOMS id type xs ys zs
3 5 0.0717485 0.000445706 0.0676984
8 2 0.144657 0.0680892 0.0667961
7 5 0.22217 0.00327244 0.0875495
6 4 0.216559 0.0692195 0.00658999
12 2 0.296399 0.0756743 0.0810259
9 2 0.294323 0.00512587 0.00510599
10 2 0.362374 0.0742403 0.00917134
14 4 0.433974 0.073858 0.0771394
687 5 0.499346 0.0762274 0.00273906
18 3 0.000270998 0.207978 0.068846
17 4 0.071755 0.147591 0.0732122
22 3 0.148808 0.213312 0.0694581
21 1 0.215352 0.140515 0.0735629
23 1 0.286703 0.144121 0.0075513
25 2 0.364608 0.144852 0.0748571
26 1 0.277766 0.217939 0.0715159
24 4 0.353414 0.214554 0.00249248
27 1 0.43413 0.141394 0.000679204
28 2 0.435107 0.217233 0.0728238
31 1 0.0656549 0.00217174 0.215384
30 5 0.0765713 0.0711479 0.140906
33 1 0.14178 0.00383817 0.146081
36 5 0.143986 0.0690902 0.214639
34 4 0.21578 0.0754346 0.15003
38 4 0.365462 0.0786286 0.142093
40 3 0.284877 0.0741073 0.214033
37 1 0.296944 0.00320968 0.1471
41 4 0.437582 0.00691161 0.146057
42 5 0.434462 0.0834165 0.212585
44 3 0.0620621 0.20759 0.15107
45 2 0.0719093 0.14657 0.219025
43 3 0.00109223 0.145382 0.147225
50 2 0.139368 0.209477 0.217067
48 2 0.211742 0.214475 0.142945
47 1 0.142858 0.140848 0.152371
49 3 0.213871 0.148706 0.218621
54 5 0.280053 0.211987 0.220532
52 4 0.359903 0.212907 0.133626
53 5 0.356486 0.143389 0.212232
51 2 0.280773 0.147375 0.146409
56 3 0.430252 0.212354 0.227291
55 1 0.43604 0.150368 0.14892
11 4 0.363636 2.56733e-05 0.0708243
13 4 0.435325 0.000423438 0.00363585
20 2 0.212842 0.209404 0.00018782
58 1 0.0753232 0.0679825 0.287717
64 4 0.143893 0.0732271 0.358869
62 4 0.2171 0.0748788 0.285869
68 4 0.28923 0.0741529 0.359616
66 4 0.366172 0.0782127 0.284518
65 2 0.289017 0.0029819 0.279843
67 1 0.357226 0.00776443 0.35495
70 1 0.432319 0.0748662 0.36013
69 5 0.436814 0.0102723 0.28836
112 2 0.432684 0.215519 0.497138
72 2 0.0724339 0.213002 0.292123
73 2 0.072139 0.13736 0.366863
75 2 0.143122 0.140937 0.289588
78 3 0.135865 0.2104 0.361071
76 2 0.203911 0.214552 0.293295
77 1 0.217902 0.141798 0.367059
81 3 0.360949 0.143748 0.355527
79 5 0.291015 0.142564 0.291878
82 2 0.282272 0.209208 0.364501
80 5 0.361547 0.215212 0.287597
84 5 0.433605 0.216305 0.347341
83 4 0.439973 0.143571 0.292801
86 3 0.0719507 0.0722603 0.433451
88 5 0.21443 0.0720177 0.430458
101 3 0.224596 8.12181e-05 0.491204
89 2 0.292384 0.00172311 0.423189
90 1 0.363791 0.0761375 0.430775
104 4 0.288295 0.0762898 0.497193
103 1 0.353249 0.00612212 0.498746
91 2 0.427543 0.00197672 0.429584
105 1 0.429784 0.0739313 0.499265
93 5 0.0749374 0.210628 0.432329
95 4 0.214256 0.21282 0.434497
94 1 0.148344 0.139665 0.428649
108 2 0.213662 0.137425 0.498392
97 3 0.35811 0.204995 0.430896
111 3 0.286719 0.208158 0.499623
96 2 0.292695 0.140361 0.428175
98 3 0.440148 0.141459 0.431468
114 4 0.0672238 0.063078 0.572571
118 3 0.221378 0.0686963 0.578047
102 4 0.139829 0.0738211 0.515799
117 2 0.150447 0.00331502 0.575635
122 3 0.361212 0.07464 0.57569
121 2 0.284573 0.000996584 0.574636
125 4 0.42498 0.00145645 0.567522
128 3 0.0687716 0.216557 0.574298
106 2 0.0717355 0.141554 0.512462
107 2 0.00231885 0.210497 0.507073
131 5 0.13896 0.146586 0.578723
132 2 0.208907 0.2096 0.572268
109 5 0.141567 0.211825 0.5042
136 1 0.360232 0.21402 0.576408
135 4 0.283582 0.144875 0.569592
110 2 0.358844 0.139355 0.50072
139 4 0.430583 0.14597 0.563978
142 3 0.0673086 0.0655115 0.717228
115 1 0.0744651 0.00596576 0.647088
119 5 0.216723 0.00461235 0.64804
144 3 0.21228 0.0803912 0.720648
120 3 0.147764 0.0784097 0.64496
143 1 0.151566 0.00763766 0.720127
145 3 0.291349 0.00830717 0.72411
124 2 0.283835 0.0793001 0.651711
146 3 0.360068 0.0889496 0.722138
123 3 0.356774 0.0113393 0.651257
126 5 0.436392 0.0802129 0.641485
154 4 0.428537 0.149677 0.715605
147 2 0.425024 0.0170195 0.712389
149 5 0.0699783 0.21051 0.717765
129 5 0.068824 0.145007 0.648777
130 2 8.33176e-05 0.208012 0.647802
150 2 0.139189 0.14155 0.718768
133 1 0.212254 0.149786 0.64655
134 5 0.14768 0.221861 0.644609
151 2 0.211976 0.215086 0.720474
138 1 0.286685 0.210362 0.64178
152 5 0.284434 0.153516 0.712458
137 5 0.355572 0.141527 0.648405
153 3 0.356942 0.219581 0.715345
140 3 0.435407 0.20848 0.643229
785 1 0.498999 0.000840528 0.501491
170 3 0.073158 0.0642673 0.860012
155 3 0.0714385 0.0044389 0.790509
196 3 0.429179 0.218307 0.934925
158 2 0.143669 0.0748177 0.791579
174 4 0.214508 0.0829781 0.856889
157 2 0.213744 0.00128231 0.78444
160 4 0.29297 0.0793946 0.790077
178 1 0.362155 0.0796604 0.862045
177 1 0.303694 0.00710917 0.86253
159 4 0.365824 0.00282859 0.786535
161 3 0.42622 0.078488 0.796032
162 5 0.0700774 0.138066 0.789262
184 4 0.067121 0.209782 0.856691
165 5 0.146907 0.222856 0.787764
187 2 0.146103 0.144579 0.857888
164 1 0.216117 0.144131 0.78235
188 4 0.217403 0.213515 0.861566
192 5 0.354133 0.21846 0.871293
167 4 0.28898 0.213813 0.794993
191 1 0.293451 0.146025 0.863472
166 1 0.364276 0.151069 0.792246
869 4 0.49843 0.22178 0.862445
848 5 0.494493 0.147675 0.787776
195 4 0.42878 0.14607 0.869543
168 5 0.427738 0.22087 0.791049
2 5 0.0767625 0.076411 0.998429
176 1 0.146828 0.0688104 0.931507
175 4 0.223073 0.00379668 0.924581
5 2 0.151513 0.00212931 0.993246
179 5 0.368419 0.00514503 0.932786
180 4 0.297549 0.0769414 0.938286
182 1 0.435744 0.0729601 0.933506
186 1 0.00412541 0.216638 0.92775
16 5 0.0748185 0.211922 0.995918
185 1 0.0736806 0.139371 0.922572
15 5 0.00603134 0.141366 0.994985
841 5 0.499759 0.00154944 0.788247
189 3 0.221004 0.140086 0.931816
190 5 0.137979 0.215052 0.932371
19 2 0.148941 0.142426 0.999754
194 2 0.285283 0.217279 0.928249
193 1 0.360465 0.146178 0.934377
199 4 0.0705777 0.279502 0.0776369
197 5 0.000668546 0.288047 0.000287215
200 1 0.00158277 0.351173 0.070059
198 2 0.061714 0.359324 0.00207512
204 2 0.131398 0.349616 0.0678156
203 3 0.211666 0.282936 0.076633
205 4 0.288795 0.284458 0.00218371
208 4 0.27558 0.357333 0.0748951
207 1 0.352308 0.280508 0.0737625
206 1 0.354475 0.360934 0.0102886
210 4 0.432152 0.351483 0.0725055
209 4 0.430061 0.284197 0.00770024
212 3 0.0758982 0.430759 0.0686932
918 5 0.49226 0.434808 0.20111
214 2 0.199566 0.431163 0.0646573
216 1 0.339813 0.426298 0.0688993
348 1 0.352796 0.49598 0.00131154
215 3 0.272718 0.430499 0.00374869
1030 3 0.497315 0.49382 0.00235169
897 3 0.496832 0.428644 0.0821324
217 1 0.430412 0.43389 0.0140459
219 3 0.0673603 0.351172 0.139856
220 2 0.0717308 0.282768 0.218444
221 5 0.00415853 0.352734 0.220352
224 2 0.211258 0.277651 0.216836
223 4 0.207296 0.352869 0.144027
225 3 0.13525 0.355868 0.219068
222 2 0.142025 0.287747 0.148134
228 4 0.35622 0.277618 0.219149
229 1 0.270318 0.348025 0.221869
226 4 0.284492 0.274143 0.150066
227 4 0.351349 0.349472 0.148428
231 1 0.424176 0.3631 0.213607
230 5 0.427911 0.276544 0.143613
233 3 0.0696791 0.426425 0.217101
232 4 0.00452353 0.429344 0.142134
235 2 0.204381 0.419969 0.215025
234 3 0.138632 0.4221 0.14807
375 3 0.142651 0.495058 0.217648
237 2 0.35062 0.428216 0.214026
236 4 0.279257 0.426819 0.14445
376 2 0.347938 0.498976 0.144734
377 4 0.286666 0.499822 0.213857
238 1 0.422042 0.428501 0.141604
240 2 0.0670073 0.351495 0.295747
241 5 0.0731457 0.28433 0.36401
242 2 0.000692236 0.361013 0.360441
243 2 0.134142 0.282091 0.289267
246 1 0.141908 0.354292 0.358806
244 5 0.206452 0.352327 0.284537
245 4 0.204103 0.284064 0.365283
247 4 0.279069 0.282466 0.297322
250 4 0.289056 0.353644 0.358087
248 5 0.350899 0.354293 0.279955
249 4 0.361222 0.276785 0.356306
251 3 0.437375 0.293837 0.28089
252 4 0.431158 0.351909 0.359723
254 1 0.0706086 0.432278 0.363405
253 4 0.00808809 0.430182 0.292021
255 2 0.131624 0.424966 0.292551
256 1 0.218236 0.425383 0.356942
403 5 0.139486 0.498082 0.35791
404 5 0.349351 0.496951 0.28603
257 1 0.285948 0.430328 0.290503
258 1 0.368617 0.423464 0.353221
939 3 0.493263 0.428921 0.357588
259 4 0.432805 0.423631 0.281142
261 1 0.0679277 0.357018 0.433438
260 2 0.00229475 0.288186 0.433172
262 2 0.144617 0.288197 0.435342
263 5 0.210986 0.362148 0.432469
273 4 0.216733 0.286136 0.497296
264 5 0.290242 0.285984 0.420623
265 1 0.363304 0.346968 0.423488
275 5 0.362149 0.279157 0.492017
276 1 0.287331 0.351202 0.494872
956 1 0.499038 0.282884 0.494368
266 4 0.431691 0.277029 0.424966
277 3 0.427593 0.356371 0.49411
267 2 0.00503621 0.430246 0.438691
429 4 0.215077 0.491531 0.434207
268 1 0.143724 0.424225 0.434984
443 4 0.147098 0.497359 0.498454
269 2 0.288311 0.430069 0.424004
280 3 0.350672 0.417128 0.499734
430 3 0.360349 0.493503 0.419595
445 5 0.424353 0.491542 0.494616
270 2 0.426715 0.42778 0.426756
444 5 0.278759 0.498941 0.496085
282 5 0.0678541 0.349989 0.571641
271 4 0.0743629 0.28519 0.501037
281 4 0.00284503 0.282022 0.576435
285 3 0.147499 0.288655 0.572666
286 3 0.219637 0.350512 0.569652
274 1 0.143674 0.357935 0.505887
289 2 0.285676 0.276619 0.56556
290 4 0.351 0.349111 0.567922
293 3 0.435358 0.284843 0.5725
278 3 0.068939 0.426504 0.508643
295 2 0.00259732 0.427574 0.572232
456 1 0.075461 0.499202 0.572984
279 2 0.217859 0.426216 0.511128
297 2 0.148251 0.424637 0.571559
299 5 0.289464 0.429171 0.579301
301 1 0.414639 0.424432 0.569792
963 4 0.496584 0.434334 0.505309
283 1 0.0755897 0.285215 0.642733
303 5 0.0787347 0.352843 0.710743
284 5 0.00162153 0.357445 0.640532
302 3 0.00768676 0.279915 0.71572
288 5 0.14792 0.363169 0.644071
304 1 0.152496 0.2884 0.71196
287 5 0.22174 0.284678 0.642649
305 4 0.22048 0.356278 0.715102
291 3 0.353704 0.278893 0.637785
292 1 0.287092 0.350448 0.640779
306 5 0.282275 0.280857 0.717333
307 3 0.352913 0.353912 0.707354
988 3 0.497736 0.351758 0.706928
308 4 0.424942 0.285223 0.702898
294 3 0.43043 0.365054 0.6395
296 4 0.0723069 0.428141 0.638072
309 3 0.00836053 0.434031 0.706258
457 5 0.00161642 0.498866 0.639152
485 5 0.210721 0.494136 0.716045
459 3 0.135693 0.492636 0.636346
298 2 0.213919 0.429059 0.64695
310 2 0.145114 0.428301 0.714322
311 1 0.286384 0.426371 0.710045
300 5 0.352752 0.429491 0.646835
312 4 0.428919 0.423641 0.717112
462 5 0.422071 0.490793 0.644437
313 2 0.072436 0.283197 0.78509
324 2 0.0696246 0.362791 0.85655
323 3 0.00197953 0.284802 0.849307
314 1 0.00529311 0.357666 0.786081
316 3 0.146314 0.351113 0.786478
327 4 0.148205 0.289204 0.860965
315 1 0.215731 0.287055 0.789201
328 2 0.218929 0.354967 0.855317
318 3 0.288535 0.367519 0.791509
331 1 0.280725 0.286838 0.861398
317 4 0.345104 0.295543 0.794438
332 2 0.350975 0.358881 0.859588
319 1 0.425557 0.361732 0.792721
335 5 0.422392 0.292006 0.862973
1009 2 0.494781 0.353834 0.851417
998 2 0.495851 0.293186 0.780817
337 1 0.00535912 0.431993 0.859587
320 4 0.0733895 0.429543 0.786595
1023 4 0.495316 0.41476 0.921785
499 1 0.141172 0.496784 0.785274
339 5 0.139338 0.428338 0.852866
321 1 0.214027 0.430622 0.78479
514 3 0.215704 0.498409 0.849
516 2 0.354488 0.498266 0.856261
341 1 0.279664 0.427204 0.858688
322 1 0.357024 0.427482 0.784179
343 5 0.421685 0.427407 0.855425
325 3 0.0659291 0.290377 0.92629
330 1 0.132835 0.359736 0.920027
329 2 0.21912 0.281756 0.930711
201 4 0.135907 0.291436 0.994881
202 5 0.212448 0.349351 0.992713
333 2 0.353346 0.29124 0.935043
334 1 0.282153 0.356235 0.930071
336 5 0.415892 0.362072 0.939371
338 2 0.0647372 0.430843 0.928992
340 4 0.21544 0.428238 0.924953
213 2 0.135145 0.427586 0.99895
342 3 0.348688 0.430294 0.934913
518 4 0.427481 0.490635 0.927976
344 1 0.0710688 0.499172 0.99904
353 3 0.0677323 0.57871 0.0519922
357 1 0.208855 0.577734 0.0714669
347 5 0.138913 0.504886 0.062418
361 2 0.35564 0.566132 0.0799732
349 1 0.27626 0.504573 0.0737871
359 4 0.280951 0.567372 0.00172383
363 4 0.424969 0.563786 0.000607991
1038 1 0.498932 0.568399 0.068499
350 3 0.417053 0.500508 0.0813587
366 5 0.0807177 0.715223 0.0665282
354 4 0.00429075 0.647772 0.056859
358 2 0.143024 0.646356 0.0608976
368 4 0.211777 0.71565 0.0691356
356 5 0.217015 0.644071 0.00291483
362 5 0.284502 0.642097 0.0758854
370 4 0.353026 0.712967 0.0782472
364 1 0.426629 0.635835 0.0720688
371 3 0.424253 0.706043 0.0107888
1037 3 0.492708 0.632476 0.00578885
372 3 0.0733328 0.500697 0.13636
381 3 0.0786566 0.576101 0.213902
379 5 0.00958699 0.577407 0.139861
373 5 0.00981361 0.505023 0.216197
383 4 0.138538 0.58036 0.135546
385 3 0.207602 0.564289 0.210683
374 3 0.203802 0.501379 0.135453
389 3 0.355234 0.572627 0.217643
387 4 0.273557 0.567111 0.143798
1058 2 0.49294 0.503466 0.140992
391 2 0.424371 0.57468 0.146329
1066 1 0.499314 0.581931 0.211002
378 2 0.425783 0.501312 0.212801
394 2 0.0710831 0.714547 0.212931
380 5 0.0668178 0.648854 0.138872
393 4 0.0051984 0.720835 0.14642
384 1 0.2131 0.650189 0.141665
395 3 0.14441 0.710541 0.14141
396 5 0.217174 0.71502 0.208317
386 1 0.139109 0.647219 0.212999
397 1 0.28384 0.715521 0.146106
390 4 0.279183 0.645108 0.216906
388 1 0.352192 0.635538 0.14952
398 4 0.354206 0.714881 0.219404
392 4 0.426107 0.642796 0.212159
399 3 0.428605 0.714192 0.143454
360 4 0.348234 0.635467 0.00182779
409 1 0.0733087 0.571373 0.360304
407 4 0.0076197 0.576978 0.285326
400 2 0.0740622 0.502357 0.286751
401 5 0.00543969 0.503922 0.35863
411 5 0.146894 0.578922 0.284942
413 4 0.208581 0.574364 0.360052
402 1 0.209116 0.501074 0.285088
415 2 0.280964 0.567383 0.282049
417 4 0.358059 0.570886 0.353026
405 3 0.281624 0.505373 0.357848
419 4 0.425774 0.570395 0.282571
1094 2 0.495345 0.575849 0.356763
406 5 0.435454 0.500785 0.348976
408 3 0.0744109 0.65014 0.286723
422 2 0.0741762 0.724848 0.361248
410 3 0.00378384 0.647185 0.366121
421 2 0.00583388 0.716189 0.291436
414 1 0.145346 0.648128 0.359906
423 3 0.138364 0.720409 0.285199
412 5 0.210525 0.64184 0.282581
424 2 0.206727 0.717151 0.353384
426 5 0.351488 0.709145 0.343008
418 5 0.275244 0.650387 0.354933
425 2 0.276969 0.716344 0.284309
416 1 0.352715 0.641624 0.280238
427 3 0.430368 0.711173 0.282904
420 4 0.429148 0.648157 0.351078
1093 1 0.498978 0.642345 0.288733
431 3 0.00611531 0.574596 0.434374
428 2 0.06943 0.50226 0.428636
448 4 0.214171 0.568578 0.494382
433 2 0.140973 0.578909 0.428835
435 1 0.286795 0.564068 0.429209
450 5 0.36329 0.569397 0.497563
452 2 0.428231 0.639798 0.496737
1131 3 0.495249 0.575793 0.499412
1114 5 0.494014 0.503494 0.426328
437 3 0.429647 0.572827 0.424107
432 1 0.0722379 0.643917 0.433593
438 1 0.00482718 0.718496 0.431671
439 1 0.141021 0.714124 0.430113
434 1 0.215863 0.647378 0.430575
436 5 0.344591 0.640623 0.424597
440 2 0.286253 0.711673 0.426037
455 4 0.352899 0.712093 0.49794
441 1 0.429295 0.711321 0.426987
463 1 0.00450777 0.576842 0.569695
442 5 0.00564532 0.505174 0.503813
446 1 0.075393 0.574958 0.502676
467 3 0.142885 0.573366 0.573283
458 1 0.21593 0.503125 0.574855
471 1 0.286775 0.56963 0.568738
460 5 0.352053 0.509305 0.565789
1142 3 0.491719 0.500343 0.578225
475 2 0.429019 0.570941 0.571414
464 3 0.0702386 0.646152 0.575243
447 1 0.00512594 0.649295 0.511788
476 4 0.423839 0.637476 0.643087
453 2 0.0685689 0.715252 0.509928
479 5 0.139941 0.721793 0.585193
468 1 0.212017 0.640906 0.565477
454 3 0.212405 0.720236 0.501912
449 3 0.140688 0.651046 0.502083
472 3 0.362033 0.638529 0.572837
481 3 0.279327 0.7213 0.574042
451 3 0.277553 0.636208 0.503351
483 5 0.427262 0.711493 0.571659
1149 3 0.495778 0.636357 0.571863
1138 2 0.495624 0.70465 0.501901
465 2 0.0641176 0.570353 0.643295
484 2 0.0807984 0.5026 0.716336
487 4 0.00530055 0.57396 0.716813
489 4 0.144176 0.573766 0.714231
469 3 0.213692 0.582905 0.641465
486 1 0.355849 0.503012 0.709289
461 3 0.286408 0.501338 0.639126
473 2 0.360527 0.568943 0.640719
491 2 0.287675 0.572395 0.706627
497 3 0.428499 0.708917 0.714123
493 1 0.42437 0.571142 0.713909
466 5 0.00451281 0.653418 0.646496
488 2 0.0766293 0.645065 0.711676
478 1 0.0694851 0.726097 0.646019
494 1 0.00470943 0.71697 0.718411
495 5 0.1398 0.723051 0.706562
490 1 0.217644 0.646005 0.705785
480 5 0.217613 0.720406 0.63828
470 2 0.136526 0.642221 0.645303
496 2 0.290457 0.712688 0.706846
482 1 0.362689 0.711404 0.634849
492 1 0.359064 0.643218 0.716687
474 1 0.280883 0.646916 0.632929
502 2 0.0697637 0.569345 0.780277
519 4 0.00539701 0.567457 0.854839
498 5 0.00527665 0.50267 0.777791
523 5 0.135562 0.570229 0.845842
504 2 0.211096 0.573969 0.779972
527 2 0.282064 0.566287 0.851113
506 1 0.359666 0.576968 0.786098
500 5 0.284729 0.5058 0.784797
531 5 0.425329 0.563554 0.858424
1187 3 0.496738 0.568507 0.784973
501 4 0.429174 0.501716 0.778161
509 2 0.0678886 0.724227 0.78375
520 3 0.070803 0.649809 0.85617
503 2 0.0022645 0.648879 0.790683
505 2 0.137963 0.644616 0.78195
535 5 0.143789 0.714651 0.849238
524 5 0.212146 0.650968 0.848619
510 5 0.217696 0.713134 0.778065
507 1 0.280325 0.637499 0.783752
528 5 0.353539 0.636125 0.856383
537 5 0.284819 0.721716 0.855465
511 2 0.354217 0.713952 0.784733
539 4 0.426997 0.708167 0.857993
508 5 0.43136 0.638627 0.786862
1205 2 0.495282 0.632733 0.860476
521 3 0.0666785 0.573352 0.932234
355 1 0.141843 0.582194 0.99612
525 3 0.213683 0.574095 0.928185
515 2 0.139404 0.507476 0.928035
346 3 0.212372 0.503285 0.998274
529 3 0.357257 0.566494 0.921647
517 1 0.280548 0.501588 0.925759
522 1 0.00279727 0.64251 0.922671
534 4 0.0793541 0.719212 0.932005
352 4 0.0709015 0.645451 0.992496
526 3 0.140065 0.643086 0.922749
536 4 0.210657 0.713657 0.930296
367 1 0.142592 0.723416 0.997807
530 3 0.280033 0.636389 0.92033
538 3 0.358261 0.71567 0.925478
369 3 0.291198 0.712336 0.990807
1219 3 0.490247 0.701726 0.92176
532 3 0.424796 0.635824 0.92893
365 4 9.77214e-05 0.71922 0.989184
512 4 0.0764162 0.500955 0.856626
549 2 0.0735086 0.864234 0.0737554
540 2 0.0738968 0.794006 0.00616441
547 3 0.00261043 0.850619 0.000860693
543 2 0.147308 0.789163 0.0677182
553 2 0.21474 0.862209 0.0683481
551 3 0.137903 0.868562 0.004806
545 5 0.282528 0.787436 0.0659083
557 2 0.357658 0.855348 0.0658604
555 1 0.284969 0.848387 0.000748034
1226 5 0.4964 0.780789 0.00451371
546 4 0.433982 0.782267 0.072017
559 4 0.426407 0.85144 0.00325075
550 4 0.00366042 0.926233 0.0707309
554 1 0.145617 0.941132 0.0739197
552 2 0.223646 0.935828 0.009396
558 4 0.294641 0.931826 0.0826289
581 1 0.436097 0.925892 0.213632
39 5 0.36992 0.998522 0.22576
560 4 0.432121 0.923801 0.0688698
562 4 0.00815693 0.7865 0.218082
561 4 0.078605 0.787653 0.140914
570 3 0.0732159 0.857242 0.21703
574 4 0.211231 0.850715 0.210367
564 3 0.144996 0.777864 0.207343
572 1 0.151997 0.857495 0.138665
563 1 0.21867 0.783158 0.133492
578 1 0.352791 0.85869 0.215826
566 3 0.285746 0.786394 0.214334
576 4 0.284657 0.852078 0.138841
565 5 0.356357 0.792416 0.148219
567 2 0.426669 0.783759 0.212919
580 4 0.432946 0.854099 0.147635
29 3 0.00342686 0.996472 0.142834
569 3 0.0767701 0.93371 0.14317
35 2 0.217643 0.99735 0.214132
575 1 0.14288 0.931317 0.206579
573 4 0.216719 0.934187 0.140135
579 5 0.288459 0.930682 0.212378
577 3 0.366458 0.922969 0.144062
582 2 0.0793944 0.78654 0.282409
591 2 0.0700024 0.858806 0.35355
583 4 0.00671452 0.78966 0.351457
589 1 0.00295139 0.860499 0.286181
585 5 0.140921 0.784164 0.362288
584 3 0.212656 0.786968 0.291164
595 1 0.21767 0.85432 0.35541
593 4 0.142416 0.862027 0.282034
587 4 0.28221 0.776654 0.361039
597 1 0.278165 0.85654 0.282131
586 1 0.354874 0.782547 0.288682
599 3 0.345021 0.852195 0.348274
588 4 0.426563 0.781196 0.362697
601 4 0.439359 0.856947 0.28305
1276 3 0.495466 0.844826 0.356497
590 1 0.0725879 0.93254 0.280433
592 5 0.00347399 0.932394 0.350392
59 4 0.0732901 0.99939 0.358395
63 4 0.223591 0.997694 0.348909
596 5 0.145786 0.924673 0.352416
594 1 0.218028 0.927522 0.275292
61 3 0.14776 0.994738 0.28326
600 1 0.288189 0.925999 0.353766
598 2 0.35575 0.926605 0.284551
602 3 0.43053 0.925765 0.355706
603 4 0.0729868 0.785456 0.427813
617 4 0.0769549 0.869539 0.497741
613 3 0.0124634 0.795866 0.496661
608 2 0.143083 0.8614 0.424159
604 4 0.214593 0.780859 0.426259
619 5 0.21428 0.857584 0.48869
605 2 0.348415 0.786906 0.423473
610 1 0.281116 0.851117 0.424882
621 5 0.343447 0.855367 0.493708
615 2 0.279222 0.78942 0.498547
612 1 0.418387 0.851368 0.432613
1289 4 0.497898 0.784575 0.438801
616 5 0.422497 0.78323 0.495041
618 5 0.00148693 0.928064 0.498284
607 5 0.0768101 0.930485 0.425674
99 1 0.0768343 0.994755 0.496479
609 2 0.222892 0.930298 0.427257
620 3 0.156166 0.929883 0.492249
87 3 0.148313 0.995416 0.429362
622 5 0.290458 0.934109 0.495111
611 5 0.355139 0.924411 0.421431
1293 4 0.495699 0.923122 0.435001
623 2 0.420454 0.925239 0.497417
1303 2 0.494757 0.853166 0.499154
624 1 0.0666795 0.795181 0.572534
631 3 0.000903449 0.874929 0.575271
635 2 0.140281 0.869067 0.580225
626 1 0.20822 0.795343 0.573354
614 5 0.136384 0.784638 0.504577
639 1 0.289693 0.855489 0.572139
628 3 0.354141 0.790049 0.570879
625 3 0.000172646 0.800344 0.649485
643 3 0.423664 0.859457 0.567695
1310 4 0.497476 0.775491 0.57177
632 5 0.0742128 0.940846 0.579177
636 5 0.220674 0.933745 0.569187
640 5 0.352965 0.926447 0.567791
1317 2 0.498123 0.92971 0.571638
633 1 0.0695695 0.866825 0.6508
645 2 0.0658144 0.79754 0.714478
627 5 0.14112 0.802909 0.647706
650 4 0.141632 0.867244 0.722866
637 4 0.224292 0.870277 0.642684
646 5 0.215618 0.790727 0.705684
629 1 0.289205 0.785989 0.640825
652 3 0.282839 0.861464 0.715331
641 4 0.362227 0.857979 0.650206
647 3 0.358372 0.784072 0.709255
1318 3 0.493756 0.855858 0.636791
654 3 0.438683 0.847128 0.712944
630 3 0.4326 0.778532 0.645602
644 4 0.432392 0.93584 0.645887
649 5 0.0755894 0.934995 0.721553
651 1 0.22433 0.933468 0.717973
638 3 0.148102 0.932346 0.645273
653 5 0.365876 0.931909 0.711055
642 2 0.297492 0.9329 0.654037
1335 3 0.498813 0.93565 0.713696
659 2 0.0727972 0.865448 0.785806
666 3 0.0710227 0.796726 0.852789
655 2 0.00263279 0.790678 0.792531
656 4 0.149602 0.780086 0.781546
677 4 0.148386 0.861835 0.848537
661 1 0.221519 0.867107 0.790182
668 5 0.214035 0.793379 0.864991
657 4 0.282062 0.784004 0.781371
681 5 0.283915 0.86008 0.857467
663 2 0.349836 0.861841 0.785384
670 5 0.355368 0.786579 0.848795
685 1 0.436217 0.850015 0.855178
658 2 0.440996 0.778263 0.784361
1345 1 0.497971 0.855407 0.785175
674 4 0.0702547 0.931252 0.857884
660 4 0.00362266 0.933505 0.79439
662 2 0.146604 0.934611 0.785887
678 1 0.21859 0.932044 0.860683
173 1 0.15087 0.997137 0.855407
664 1 0.291612 0.938098 0.790351
682 5 0.364883 0.924986 0.856678
181 2 0.434413 0.996288 0.863683
665 4 0.433956 0.926192 0.784002
675 1 0.0779846 0.866006 0.930129
667 2 0.00115515 0.792255 0.92856
679 1 0.214696 0.86129 0.937651
669 3 0.136402 0.797974 0.93645
542 4 0.214882 0.787487 0.992177
683 4 0.361766 0.861843 0.930558
671 2 0.287239 0.786945 0.928673
544 1 0.362976 0.782294 0.996163
672 3 0.423152 0.785953 0.931427
171 4 0.0823996 0.999087 0.92612
548 5 0.0765521 0.927783 0.994058
1 1 0.00673861 0.997388 0.99407
680 5 0.151814 0.929566 0.924434
684 4 0.290065 0.927811 0.926148
556 3 0.355872 0.932123 0.994603
686 4 0.436468 0.928689 0.933371
1352 5 0.499981 0.788354 0.856706
692 1 0.573261 0.0800105 0.0752826
688 4 0.507831 0.00257647 0.0772376
689 2 0.57239 0.00114482 0.00760139
696 5 0.724774 0.0654727 0.0764605
691 3 0.636387 0.00288706 0.0693586
693 1 0.70726 0.000134012 0.00708127
690 2 0.640223 0.0724434 0.00756005
700 3 0.857568 0.0722626 0.0710188
697 3 0.853414 0.0019061 0.00796665
4 4 0.998872 0.062876 0.0703156
702 3 0.510789 0.148095 0.0692281
706 2 0.583635 0.225991 0.0817436
703 2 0.572399 0.149381 0.00103601
701 5 0.506444 0.219716 0.00112932
705 5 0.651007 0.145191 0.0665933
710 2 0.720187 0.21699 0.0731167
704 1 0.642829 0.220804 0.00400092
707 3 0.717667 0.154228 0.00542551
714 3 0.857126 0.219477 0.0711974
709 4 0.788938 0.135282 0.0756557
708 4 0.782017 0.227948 0.00101333
711 1 0.852654 0.155226 0.0028801
713 5 0.934533 0.139206 0.068244
715 4 0.508017 0.0779561 0.143386
720 2 0.570954 0.0738145 0.21347
717 1 0.571908 0.00449559 0.148637
716 2 0.510472 0.0017544 0.216019
718 2 0.643246 0.0717325 0.140644
724 1 0.714388 0.0724061 0.213437
721 4 0.713536 0.00248348 0.143123
719 2 0.637715 0.00133395 0.214405
725 2 0.857256 0.00163081 0.135447
728 3 0.861819 0.0727102 0.215885
722 3 0.787438 0.0730215 0.150142
46 4 0.995345 0.213968 0.224547
32 5 0.998972 0.0720526 0.216166
726 3 0.93389 0.0610147 0.145211
734 4 0.583256 0.220812 0.20897
731 5 0.582771 0.146645 0.13523
729 4 0.504488 0.221587 0.142368
730 2 0.502097 0.149634 0.214277
738 3 0.718247 0.212024 0.216146
732 1 0.656419 0.214053 0.140831
733 4 0.64232 0.143546 0.214599
735 2 0.718971 0.142196 0.144839
739 5 0.86681 0.135877 0.141281
742 5 0.865192 0.209591 0.2133
737 1 0.784794 0.142998 0.213565
736 3 0.789779 0.21466 0.145285
740 3 0.924468 0.214293 0.146654
741 2 0.926621 0.1421 0.224663
748 1 0.575939 0.0700861 0.354025
744 5 0.508198 0.00494552 0.354189
743 5 0.510009 0.0692639 0.279781
746 3 0.639222 0.070601 0.282989
752 4 0.719181 0.0777274 0.36061
74 3 0.999887 0.212978 0.355023
749 4 0.710444 0.00433342 0.287145
750 3 0.785796 0.077067 0.279224
756 4 0.85455 0.0710011 0.353266
751 4 0.782144 0.00236236 0.363343
754 1 0.926389 0.0679795 0.288429
57 3 0.998128 0.00556169 0.282863
60 1 0.99743 0.0767711 0.372201
759 4 0.576272 0.144663 0.284185
762 2 0.577342 0.216254 0.358561
757 2 0.510015 0.214463 0.286299
758 3 0.508927 0.137936 0.35617
760 3 0.645196 0.216647 0.280891
761 1 0.647567 0.142755 0.358548
763 4 0.721496 0.1512 0.287342
766 5 0.719699 0.214091 0.351581
764 3 0.791714 0.216447 0.285946
765 1 0.787722 0.14366 0.358268
770 2 0.854914 0.21249 0.353441
767 1 0.854565 0.144122 0.284723
768 1 0.927256 0.222927 0.289242
769 5 0.918541 0.145336 0.353693
71 4 0.997328 0.146376 0.291109
771 3 0.506546 0.0691777 0.438338
787 1 0.57167 0.0705826 0.496694
773 1 0.643548 0.0672025 0.428769
775 3 0.782247 0.0731637 0.435844
791 4 0.857922 0.0657675 0.495537
85 4 0.996108 0.000349402 0.425199
777 5 0.92112 0.0665995 0.430756
779 1 0.578892 0.142933 0.427698
778 2 0.507186 0.211951 0.423644
792 1 0.503505 0.148172 0.49159
794 5 0.576762 0.223693 0.497931
793 1 0.646917 0.141845 0.498971
753 5 0.854579 0.00111799 0.282664
780 3 0.65074 0.212357 0.422055
781 5 0.712079 0.138717 0.428189
783 1 0.859586 0.138757 0.429075
782 1 0.791518 0.207144 0.434571
798 2 0.857881 0.214978 0.498136
92 5 0.995021 0.138561 0.438039
784 3 0.930754 0.212903 0.426139
789 1 0.708878 0.072625 0.499983
799 5 0.50242 0.077601 0.561006
801 2 0.566393 0.00340613 0.568955
802 4 0.636164 0.0746682 0.576709
148 1 0.997429 0.142161 0.721717
806 5 0.773946 0.0675568 0.566804
827 5 0.500984 0.0800006 0.712698
810 4 0.924891 0.0725786 0.576998
100 1 0.999204 0.0731869 0.502173
815 5 0.579976 0.145853 0.554128
813 4 0.50556 0.211933 0.566036
816 3 0.646733 0.221126 0.566109
819 4 0.716709 0.142965 0.569706
823 2 0.855061 0.140919 0.570469
820 5 0.79138 0.211816 0.563496
795 1 0.79289 0.140568 0.502916
127 5 0.99743 0.142027 0.580779
824 1 0.926714 0.21133 0.568908
797 4 0.924438 0.140223 0.504346
828 4 0.572141 0.00541173 0.71088
804 5 0.570758 0.0812921 0.644865
800 2 0.500787 0.0103197 0.64573
803 3 0.632326 0.000612928 0.639623
829 1 0.645029 0.0828077 0.716441
808 5 0.711629 0.0741335 0.646114
812 3 0.849205 0.072117 0.635787
831 3 0.786147 0.0632952 0.714249
832 4 0.858193 0.00248567 0.712803
116 4 0.996387 0.0705115 0.643693
833 5 0.925943 0.0777434 0.715673
141 2 0.997313 0.00275751 0.716237
811 4 0.926896 0.0024204 0.644347
818 2 0.580815 0.215133 0.639001
835 5 0.572661 0.145962 0.724128
814 3 0.504702 0.146913 0.639674
834 4 0.503477 0.217244 0.713506
836 4 0.639539 0.214646 0.713871
822 3 0.715328 0.218777 0.634706
817 5 0.645528 0.150567 0.643012
837 2 0.722237 0.148939 0.711864
838 1 0.783847 0.215392 0.710372
826 4 0.849819 0.209415 0.637661
839 3 0.848223 0.1362 0.720183
821 3 0.782182 0.142203 0.643748
840 5 0.922659 0.214543 0.716577
825 1 0.92359 0.140793 0.648482
796 1 0.715306 0.208511 0.500486
843 3 0.569985 0.0719511 0.784531
855 2 0.505216 0.0769968 0.863462
712 5 0.92994 0.22164 0.993306
858 4 0.641926 0.0800412 0.856622
845 1 0.707434 0.0761378 0.785283
870 1 0.501158 0.152638 0.932865
861 4 0.709213 0.00490049 0.858247
862 2 0.779151 0.0720478 0.861278
847 2 0.853025 0.076464 0.788435
865 1 0.851268 0.001637 0.857242
844 4 0.785977 0.0010291 0.791576
866 1 0.922198 0.0743964 0.865355
156 1 0.992915 0.0667274 0.789216
846 4 0.924171 0.000430605 0.796973
850 2 0.566921 0.219639 0.784703
871 4 0.562423 0.14347 0.864661
849 3 0.639552 0.155702 0.793494
872 4 0.641992 0.214128 0.859705
852 2 0.709071 0.214277 0.779015
875 2 0.715233 0.144303 0.861072
851 4 0.780819 0.133927 0.789071
876 3 0.784555 0.208183 0.859359
854 5 0.856458 0.209825 0.788031
879 2 0.854718 0.139381 0.863465
163 1 0.997759 0.208757 0.785095
183 5 0.992467 0.139646 0.855069
853 3 0.928352 0.143308 0.786937
880 3 0.930887 0.215808 0.862189
856 5 0.505476 0.00401783 0.934281
860 5 0.571029 0.0748904 0.92855
864 5 0.70572 0.0733766 0.932038
169 3 0.996616 0.00292993 0.866371
868 3 0.853557 0.0752902 0.930796
694 3 0.779928 0.0739203 0.999957
172 4 0.999428 0.0722093 0.931898
698 2 0.923804 0.0703674 0.998932
874 2 0.572796 0.216569 0.934457
873 4 0.639805 0.149658 0.932517
878 2 0.713153 0.211456 0.92728
877 3 0.782072 0.143238 0.929018
882 1 0.859375 0.215827 0.924306
881 3 0.927136 0.140391 0.933568
867 4 0.922453 0.000375611 0.923167
888 5 0.575283 0.354853 0.0679214
883 4 0.503265 0.358596 0.00376664
885 1 0.574283 0.287064 0.00497043
884 4 0.509316 0.282293 0.0699667
887 5 0.653704 0.287925 0.0803428
892 5 0.71759 0.362958 0.0721858
891 5 0.784154 0.287413 0.0729858
896 5 0.859416 0.344666 0.0696376
895 2 0.933283 0.278616 0.0673186
894 1 0.925004 0.350226 0.0015861
898 3 0.574806 0.438554 0.00538208
899 2 0.64962 0.434808 0.0794097
900 1 0.715342 0.42946 0.00420201
1036 4 0.858017 0.495631 0.0756355
901 1 0.792757 0.424043 0.0732049
211 1 0.993147 0.432862 0.002816
903 5 0.923029 0.423141 0.0661302
345 3 0.995175 0.493456 0.0730023