LAMMPS data file via write_data, version 2 Aug 2023, timestep = 9368, units = metal

1372 atoms
5 atom types

-2.0842303644746956 23.084230364474593 xlo xhi
-2.0842303644746956 23.084230364474593 ylo yhi
-2.0842303644746956 23.084230364474593 zlo zhi

Masses

1 58.933
2 58.69
3 51.96
4 55.847
5 54.94

Atoms # atomic

3 5 -0.21474537268435612 -2.058928983420972 -0.3013894172186793 0 0 0
8 2 1.5446821236957675 -0.26087185182578326 -0.2805539021918674 0 0 0
46 4 -2.0653963034231673 3.3392794898685647 3.363857310704916 1 0 0
6 4 3.3356954951042024 -0.2806765622939126 -2.0369212094774762 0 0 0
12 2 5.132779516097209 -0.27309191417153533 -0.2822558624082001 0 0 0
9 2 5.129405348243687 -2.0697470954138364 -2.0359627212723193 0 0 0
10 2 6.884294912243311 -0.25152551912051874 -2.050721202441517 0 0 0
32 5 -2.0310210599208887 -0.2624131032127138 3.352649765059417 1 0 0
14 4 8.689289698736355 -0.2894355607872126 -0.2739612520797667 0 0 0
55 1 8.718085415379749 1.4969505855546197 1.5235555657848452 0 0 0
687 5 10.496588369872876 -0.26362734384744746 -2.073469561242406 0 0 0
56 3 8.81383863054428 3.239522733208064 3.328725140929764 0 0 0
17 4 -0.2611489766768143 1.511867996513588 -0.2898373462153024 0 0 0
22 3 1.5978796579276608 3.249447663800186 -0.29357723872027724 0 0 0
21 1 3.3325104664380962 1.529224576374033 -0.273746737769413 0 0 0
20 2 3.361357379887181 3.296658655236703 -2.0711020094090684 0 0 0
23 1 5.112314334777771 1.5282227012243905 -2.0432887956949544 0 0 0
25 2 6.8885134540092245 1.504470791146348 -0.2747887205135649 0 0 0
26 1 5.080546300417598 3.299610379447424 -0.2536874203521689 0 0 0
24 4 6.8845743137465485 3.299519246993778 -2.032812755317734 0 0 0
27 1 8.689573823068628 1.5081702425297383 -2.0797486202099433 0 0 0
28 2 8.687842475266175 3.269320373208417 -0.2772827592872489 0 0 0
31 1 -0.26063427658493027 -2.0759424561536304 3.329400751664207 0 0 0
30 5 -0.21395662706965424 -0.24158667846322268 1.5327925589801394 0 0 0
33 1 1.504382303513537 -2.0625743140145993 1.5276798466233066 0 0 0
36 5 1.5300478673981874 -0.29562607846812194 3.3245548401718947 0 0 0
34 4 3.333896683256129 -0.29691056029816004 1.4806827524537602 0 0 0
38 4 6.875648387320519 -0.2687029496759893 1.5081507607990954 0 0 0
40 3 5.05701540715759 -0.3526260930537212 3.3010624662700527 0 0 0
702 3 10.498095052479956 1.5216425753750236 -0.2879398555181519 0 0 0
19 2 1.57543987841633 1.5139045420622297 -2.0713484488760656 0 0 0
42 5 8.738948524769485 -0.2666172943963821 3.283763785679623 0 0 0
44 3 -0.20708284424342155 3.2780779421961017 1.5567069402208282 0 0 0
45 2 -0.2224052725880364 1.5448496115868746 3.3452075722915886 0 0 0
51 2 5.0828939659388634 1.523081010989679 1.4984629705402368 0 0 0
50 2 1.544203901033432 3.31823319719657 3.3310848191543205 0 0 0
48 2 3.3087555680979643 3.312706024627568 1.5251725531201255 0 0 0
47 1 1.5469641155057114 1.5262587641831196 1.5341197384526666 0 0 0
49 3 3.2807382463784895 1.5646431113124173 3.2869159034472015 0 0 0
54 5 5.091202221343443 3.314007113679458 3.3026324360543815 0 0 0
52 4 6.91599439315945 3.275594784629656 1.4874608211406584 0 0 0
53 5 6.904890171634656 1.5051859872737288 3.3061334036584062 0 0 0
4 4 -2.0679491976184483 -0.29515677952298247 -0.30522281693782044 0 0 0
58 1 -0.24612680355466784 -0.25641743204736955 5.098303501332447 0 0 0
64 4 1.5268322486758088 -0.24444687608175233 6.879163187787731 0 0 0
62 4 3.336902875077873 -0.29727942131105817 5.132230485084122 0 0 0
68 4 5.119808999506777 -0.2961892265174355 6.940308146677254 0 0 0
66 4 6.914611110717653 -0.30032711333911544 5.128098507615425 0 0 0
71 4 -2.05555414681497 1.514835166556864 5.114623604290244 1 0 0
60 1 -2.0750035948728076 -0.264318256416428 6.916094906803077 1 0 0
70 1 8.7372971889668 -0.31410154546362123 6.946674425760772 0 0 0
69 5 8.692959419054999 -2.076100594746823 5.135035580045648 0 0 0
72 2 -0.20991685998919457 3.3110657075282255 5.124495001852566 0 0 0
73 2 -0.26388758038889104 1.5065340323696683 6.8898252668864135 0 0 0
75 2 1.5318110591199448 1.5436141738793179 5.098869606659596 0 0 0
78 3 1.5406312975799215 3.2438952541022403 6.896913750394545 0 0 0
76 2 3.2944570271439075 3.31936381031475 5.118770283595873 0 0 0
77 1 3.3321727920154403 1.5368687928046718 6.894459836524282 0 0 0
81 3 6.939753061713504 1.4683435918801555 6.9553272066786525 0 0 0
79 5 5.0859299919130905 1.5345257710393505 5.15129949915515 0 0 0
82 2 5.111800173014896 3.3051543661075384 6.920056310349442 0 0 0
80 5 6.91230257895518 3.3014671344679956 5.13675219226468 0 0 0
84 5 8.7724660279379 3.3255959485701094 6.901320891293929 0 0 0
83 4 8.775249938318007 1.476565841706398 5.150946092392441 0 0 0
86 3 -0.2527284165147765 -0.25224235729546446 8.746822766564403 0 0 0
88 5 3.284920903619102 -0.19831827209598937 8.677038979168497 0 0 0
101 3 3.3441301629166036 -2.081972971471263 10.47487741490356 0 0 0
57 3 -2.048327113863156 -1.9815033486258593 5.164269337751607 1 0 0
90 1 6.935514291990899 -0.2931585311985257 8.70119802503727 0 0 0
104 4 5.121992197603534 -0.2563139408085685 10.436433646009291 0 0 0
103 1 6.896271256666116 -2.081816324637985 10.466521044956373 0 0 0
91 2 8.701270047562241 -2.062106820546165 8.736614510307753 0 0 0
105 1 8.680725596400848 -0.2838026275866163 10.470269225668629 0 0 0
93 5 -0.277010059869262 3.290074735661452 8.718127005576546 0 0 0
95 4 3.3353685343132415 3.301066556067649 8.688360463518666 0 0 0
94 1 1.507564994742842 1.523627897605832 8.709254760856139 0 0 0
59 4 -0.259746145250502 -2.0493003287653333 6.908342851329689 0 0 0
97 3 6.8906175398433325 3.309888547437944 8.705189936490072 0 0 0
85 4 -2.071094310097809 -2.0825989481454457 8.71592404956845 1 1 0
96 2 5.127866440209867 1.538798317136221 8.693476861681471 0 0 0
112 2 8.70118097131416 3.336831140881172 10.470065790328727 0 0 0
98 3 8.728200342309465 1.4814100440129174 8.799941803235905 0 0 0
74 3 -2.029009848019324 3.3116356926798147 6.84614911622627 0 0 0
110 2 6.910204110358553 1.5327714323180612 10.470326242536268 0 0 0
92 5 -2.07682056222097 1.4690627695320835 8.706649924019066 1 0 0
107 2 -2.0835356876696234 3.3096932494050533 10.48180877680721 0 0 0
109 5 1.5602336031581128 3.2823830828459353 10.462176448949622 0 0 0
108 2 3.323714605666476 1.5267603077626928 10.499178236170875 0 0 0
100 1 -2.071414350041099 -0.2662173757212052 10.462781008251785 1 0 0
114 4 -0.2836030318277537 -0.29876421218522053 12.26716483029738 0 0 0
118 3 3.3627923052943984 -0.2876807163243013 12.31170298216303 0 0 0
102 4 1.5269631733950837 -0.2681211955207241 10.525686692136626 0 0 0
117 2 1.548559668799335 -2.0772949591936953 12.305612317755408 0 0 0
122 3 6.8867163394034385 -0.3001035908921226 12.227628281631592 0 0 0
121 2 5.116310093407048 -2.056118440124133 12.286436528785043 0 0 0
125 4 8.705067103207167 -2.078771147843721 12.244635800961461 0 0 0
154 4 8.712595367634798 1.5362410795085588 15.896699002146672 0 0 0
128 3 -0.32523035885520774 3.3637273074222955 12.284860185479696 0 0 0
106 2 -0.3064634649155105 1.5281898465898545 10.508063218385743 0 0 0
113 4 -2.0660015978036306 -2.0603038336043653 12.255017343073652 1 1 0
131 5 1.5421914077357588 1.5387622290767664 12.30459434991642 0 0 0
132 2 3.330272425256396 3.301738934074546 12.313852643886174 0 0 0
116 4 -2.0633315919077972 -0.2951434636431893 14.083876647265951 1 0 0
136 1 6.879639017147875 3.339719171211375 12.245036535510646 0 0 0
135 4 5.112328387416619 1.518753100591643 12.313722384523752 0 0 0
153 3 6.870776162903944 3.315035611470984 15.935478746755688 0 0 0
139 4 8.694748401457948 1.5495918612213737 12.231486315149937 0 0 0
142 3 -0.2737299797003129 -0.3469061561875795 15.885122095849308 0 0 0
115 1 -0.22440461847294585 -2.0806099874846082 14.115572431007498 0 0 0
141 2 -2.038254618735067 -2.0504548076186015 15.91385573691659 1 0 0
144 3 3.273114474423935 -0.2534153143635308 15.96348534091623 0 0 0
120 3 1.5253822780271264 -0.3227583878849423 14.09022895109329 0 0 0
143 1 1.5681532045158637 -2.0756390675525362 15.910121293946506 0 0 0
145 3 5.07495081107283 -2.0748537796823086 15.977792547782885 0 0 0
124 2 5.117139231312669 -0.26500311556276596 14.11130987213634 0 0 0
146 3 6.922378941096836 -0.26648890863731617 15.909821157799566 0 0 0
123 3 6.823920400826484 -2.0631324031638387 14.092049978645871 0 0 0
126 5 8.713564481201178 -0.2757664174413989 14.058011090710531 0 0 0
147 2 8.696499241209246 -2.0251229528373487 15.888855394611015 0 0 0
149 5 -0.2888478615135216 3.319884429773178 15.926849173563312 0 0 0
129 5 -0.3023814250489199 1.5172487143398339 14.123668404290228 0 0 0
140 3 8.724296008639882 3.362485509651278 14.094979930307456 0 0 0
150 2 1.5345807718362063 1.4919301613912337 15.905714884429207 0 0 0
133 1 3.315221942655455 1.517745448674283 14.11974072416741 0 0 0
134 5 1.5447274941128704 3.3149974388885046 14.14081772270651 0 0 0
151 2 3.306941639424959 3.2951652566813636 15.918450259607457 0 0 0
138 1 5.074854475571322 3.313955012276049 14.095955433790278 0 0 0
152 5 5.084489481459633 1.5098113740281414 15.925011654398787 0 0 0
137 5 6.890437484548303 1.6060812817480348 14.069090637377489 0 0 0
800 2 10.492818013416572 -2.0548900846127993 14.046299816711578 0 0 0
148 1 -2.0638983564381164 1.5284348851671408 15.890942922582264 1 0 0
827 5 10.484866196870458 -0.3265763012186609 15.892773927188959 0 0 0
111 3 5.087932499132771 3.2731645201533763 10.54500536514316 0 0 0
170 3 -0.1364205048533563 -0.24280905650001033 19.58085182853733 0 0 0
155 3 -0.21597139561527984 -2.023419188719001 17.74121539452853 0 0 0
158 2 1.5510905175460952 -0.2867490333847198 17.699554788865164 0 0 0
174 4 3.315586844806706 -0.2752069413592205 19.491695620705226 0 0 0
172 4 -2.0534743808575797 -0.29879170339402855 21.340526046202132 1 0 0
160 4 5.121268280468377 -0.25112467250825377 17.759683058798352 0 0 0
178 1 6.869140521972404 -0.2594076393398359 19.53629287765749 0 0 0
856 5 10.479166811416587 -2.070462560985691 21.295475330473458 0 0 0
159 4 6.923151979227884 -2.071145857012414 17.742901943903004 0 0 0
161 3 8.644115014823523 -0.25713763385266386 17.770201542081384 0 0 0
841 5 10.470601151511755 -2.0599918081948374 17.798860006746803 0 0 0
162 5 -0.27660950225729863 1.4727122426021104 17.686966801309058 0 0 0
184 4 -0.23800305338392727 3.293079974501248 19.500488448364035 0 0 0
165 5 1.5732656488866317 3.361192121894026 17.69403231699603 0 0 0
187 2 1.5495352236461937 1.5121016619377026 19.5023900574257 0 0 0
164 1 3.280703105631826 1.525690032443918 17.697140068921847 0 0 0
188 4 3.348510094379233 3.31510616516778 19.502270225985477 0 0 0
192 5 6.842986178068713 3.298786576961587 19.532212823739773 0 0 0
167 4 5.09357051619118 3.3074020651484437 17.727126762909794 0 0 0
191 1 5.165827327112326 1.5352368545006003 19.52847305569778 0 0 0
166 1 6.918391975882167 1.531437830227162 17.713785688038616 0 0 0
869 4 10.495783383533542 3.326155607703972 19.520146204708364 0 0 0
848 5 10.496476616752147 1.5386735247419454 17.71166296646992 0 0 0
195 4 8.680008542844202 1.5262894580993314 19.54856893598561 0 0 0
168 5 8.688310066215898 3.335810101116052 17.696670198070873 0 0 0
2 5 -0.20115592608742985 -0.28302997378099937 23.04300997128126 0 0 0
176 1 1.5514967027938618 -0.2661013776029649 21.310727174410005 0 0 0
175 4 3.310907746375971 -2.076446990158478 21.296893359432126 0 0 0
183 5 -2.0252962094804907 1.497870506588384 19.554844868047997 1 0 0
179 5 6.882180158392869 -2.0292206603969554 21.298966596773045 0 0 0
180 4 5.110664222501012 -0.2875821532750827 21.310779933323275 0 0 0
182 1 8.673902470851033 -0.2565045538716715 21.332321043103146 0 0 0
186 1 -2.033830931387199 3.3189863639542065 21.31322334901711 0 0 0
16 5 -0.2519180122257684 3.2970730655388394 23.047935613711942 0 0 0
185 1 -0.21761282183399222 1.5331829008096973 21.32132815079121 0 0 0
15 5 -2.0586579932730786 1.5132704694019896 23.048375980431732 0 0 0
189 3 3.366767392395828 1.5193916239385763 21.309000323142893 0 0 0
190 5 1.575323315849119 3.289888370953865 21.30628746822344 0 0 0
181 2 8.698057031214992 -2.0287197269070734 19.55847191075732 0 0 0
194 2 5.108639109525536 3.3229470327100126 21.319684201217083 0 0 0
193 1 6.875481615962322 1.5154218126521477 21.34398743848568 0 0 0
196 3 8.679276712618282 3.2893894305896767 21.341539650580042 0 0 0
163 1 -2.065034346917489 3.2920532167183545 17.711047293176783 1 0 0
855 2 10.45915504400508 -0.26100275833815767 19.547601026791163 0 0 0
156 1 -2.052314229443123 -0.25064266116938383 17.703418212906392 1 0 0
169 3 -2.0692569541738592 -1.9701237044791766 19.46870390107462 1 0 0
199 4 -0.20360000222509894 5.09946200833591 -0.3344467663135011 0 0 0
349 1 5.113980591496873 10.491358277831566 -0.25762596367485135 0 0 0
200 1 -2.060790492068721 6.864119612733414 -0.3438204183895491 0 0 0
374 3 3.2773758050566473 10.483875031433612 1.4769308173344953 0 0 0
204 2 1.5492197284850004 6.929254212063122 -0.31179065652963167 0 0 0
203 3 3.301207189575689 5.101731212861219 -0.24473475114216095 0 0 0
205 4 5.114926158836668 5.116116336084511 -2.051811549966866 0 0 0
208 4 5.12879293956183 6.920961077761967 -0.2624392641060815 0 0 0
207 1 6.914973287671151 5.083907599732621 -0.2660610093853116 0 0 0
206 1 6.900922445665852 6.8985093356536185 -2.0197347051999928 0 0 0
210 4 8.660750124340696 6.921873174195873 -0.24465680254479316 0 0 0
209 4 8.665156454001458 5.105844505047301 -2.055045462371538 0 0 0
212 3 -0.3056629008818696 8.604467064545716 -0.3709196759565211 0 0 0
214 2 3.2797429268089533 8.739860715044903 -0.2926833404561736 0 0 0
216 1 6.918200520950341 8.76113821136809 -0.29821649670949585 0 0 0
218 3 -2.0308993332944674 5.114645429793358 1.4900227028764217 1 0 0
215 3 5.1693900529451495 8.764527167579013 -1.9966886186528894 0 0 0
238 1 8.673582989885892 8.735556656839185 1.535896411383511 0 0 0
897 3 10.43765772938659 8.711402838271503 -0.21654088064393073 0 0 0
217 1 8.663096022128197 8.724510843680092 -2.064168580995406 0 0 0
219 3 -0.19782721431478195 6.825618333258321 1.4789605611667265 0 0 0
220 2 -0.2086719646636267 5.069684369609413 3.337653563182093 0 0 0
221 5 -2.0092612774249914 6.82706690760187 3.3115060538874475 0 0 0
224 2 3.2923183527908 5.097368520408628 3.329995706383674 0 0 0
223 4 3.3060887368180687 6.92401771575034 1.5354761494720885 0 0 0
225 3 1.5139244945990091 6.844003970934647 3.3736627961738095 0 0 0
222 2 1.5489660733683732 5.071077524701719 1.5358233931288965 0 0 0
228 4 6.87991974770285 5.119516336952352 3.319665002339693 0 0 0
229 1 5.054261114484495 6.9571175328757064 3.364781796028486 0 0 0
226 4 5.10925118655346 5.123314812894448 1.5331629436846106 0 0 0
227 4 6.875782790318859 6.933878518608438 1.5450494745060097 0 0 0
231 1 8.713311230342963 6.928290341771297 3.2820535567129574 0 0 0
230 5 8.697699223419349 5.11993356853384 1.5374640343227235 0 0 0
233 3 -0.2485841079443003 8.663949452664186 3.3893888850838074 0 0 0
232 4 -1.9877290061649568 8.643342460484606 1.5083445435392038 0 0 0
235 2 3.2596411092270348 8.719661229767153 3.3488112138591677 0 0 0
234 3 1.5164164136240712 8.687402173124749 1.4944735666944025 0 0 0
375 3 1.4910251416443097 10.480598666506806 3.393687270196747 0 0 0
237 2 6.894868936143173 8.73768646778818 3.2938921472399554 0 0 0
236 4 5.097220004216965 8.73121071737779 1.5221272975154807 0 0 0
884 4 10.497935365855726 5.1004906952663855 -0.2714270615288507 0 0 0
883 4 10.454190710926467 6.91764914442339 -2.0404603089289024 0 0 0
918 5 10.461770580995918 8.712032505381346 3.216538231105223 0 0 0
346 3 3.2888637917936143 10.496502365797141 -2.0208483724413746 0 0 1
240 2 -0.23914083772160585 6.893723334944724 5.160301315880231 0 0 0
241 5 -0.23555793223531907 5.153968214405057 6.928904539809176 0 0 0
242 2 -2.0480761036526993 6.914594515601654 6.955696863907988 0 0 0
243 2 1.5321070089783537 5.095966940579929 5.114203929607642 0 0 0
246 1 1.5177950765166692 6.925585418829924 6.920565369327935 0 0 0
244 5 3.315082580684606 6.937531327453655 5.138328949223886 0 0 0
245 4 3.304055906662035 5.121888018909999 6.927253267740702 0 0 0
247 4 5.090049863644848 5.111152477981208 5.110251971566705 0 0 0
250 4 5.123823874157013 6.9611339070885645 6.9073333338935115 0 0 0
248 5 6.86894537185147 6.981183269422687 5.051996688842798 0 0 0
249 4 6.912377334110167 5.132052548665748 6.882756137716493 0 0 0
251 3 8.76208767391141 5.136587249135518 5.000010206226826 0 0 0
252 4 8.672327505566862 6.921297264672946 6.8947752905527935 0 0 0
254 1 -0.26419232899054407 8.692975792198794 6.949796859496408 0 0 0
253 4 -2.0400613274054873 8.67103573689756 5.148698073622515 0 0 0
255 2 1.510891903657668 8.693107331014742 5.157857596126455 0 0 0
256 1 3.282725438393187 8.706543840866482 6.908902241463749 0 0 0
403 5 1.5133577366868876 10.475120369759159 6.948158784074301 0 0 0
404 5 6.8855521620915265 10.486095322672368 5.0928663631718925 0 0 0
257 1 5.077616351838464 8.733609145500427 5.093151345559503 0 0 0
258 1 6.894685113706618 8.73539322971133 6.903680183791816 0 0 0
939 3 10.474343110199401 8.686408476263539 6.914943787745752 0 0 0
259 4 8.688985275322489 8.721524369950913 5.065489237454412 0 0 0
261 1 -0.26827710309895525 6.927628104066364 8.703869284530809 0 0 0
260 2 -2.064920730993258 5.125896194423859 8.699915691319973 0 0 0
262 2 1.5097525152486924 5.143899724089876 8.699544881940879 0 0 0
263 5 3.2612363642292217 6.985048742336695 8.72133892624124 0 0 0
273 4 3.2977098620828804 5.127383642005656 10.472151562177359 0 0 0
264 5 5.130527918042455 5.165485245881147 8.689481420478623 0 0 0
265 1 6.894912369385825 6.945924288125547 8.703245260611697 0 0 0
405 3 5.027849855987808 10.454375491691929 6.868891705843055 0 0 0
276 1 5.076068238888359 6.935690014434584 10.473830525605077 0 0 0
270 2 8.698943072199587 8.691073559914246 8.67831160000578 0 0 0
266 4 8.69587593952405 5.131307175987832 8.717760320211854 0 0 0
277 3 8.740248982390035 7.0014012823256895 10.493134583768098 0 0 0
267 2 -2.0429978040906422 8.700310399099402 8.720100383649214 0 0 0
429 4 3.303281833245223 10.498295769444756 8.725234259168802 0 0 0
268 1 1.4978661467112566 8.705493589207707 8.71383041207138 0 0 0
406 5 8.70596181907922 10.49916420241346 6.902427041900302 0 0 0
269 2 5.089505065874924 8.71459102882543 8.70321722123874 0 0 0
280 3 6.854723735978255 8.635079432388043 10.468307512832634 0 0 0
430 3 6.8549792984858575 10.464057253559384 8.656583365825385 0 0 0
956 1 10.49567240116534 5.124856921729309 10.4918286141334 0 0 0
401 5 -2.021222096805409 10.499129253529594 6.9495628452525136 0 0 0
239 4 -2.0564741342337136 5.12258559585323 5.133094699954432 1 0 0
400 2 -0.24309477020355005 10.48811560329917 5.184163227477017 0 0 0
271 4 -0.283937824260106 5.131754436383653 10.45443984217382 0 0 0
274 1 1.5019477803885606 6.946378431324383 10.496619324494448 0 0 0
272 2 -2.0807371120028257 6.922051259292055 10.473753273673891 1 0 0
282 5 -0.2626799965043775 6.86020331668254 12.30019080682175 0 0 0
486 1 6.886952560343986 10.483965620794 15.89457056790223 0 0 0
295 2 -2.0774314747882094 8.697534821418412 12.278779109956194 1 0 0
285 3 1.5359179927699427 5.080576794199639 12.289593378134066 0 0 0
286 3 3.3042903225488636 6.9370807797132015 12.269155805860299 0 0 0
484 2 -0.25005047620581355 10.495296675505692 15.886234428744903 0 0 0
289 2 5.06028169600628 5.107268800873085 12.27788015041815 0 0 0
290 4 6.862371580508104 6.948026503770555 12.322009206791058 0 0 0
293 3 8.73184920381408 5.069500477198444 12.251942037639113 0 0 0
278 3 -0.2671391917948263 8.679266885783463 10.510381949397205 0 0 0
312 4 8.70669260819806 8.655195753480871 15.919713891716958 0 0 0
1142 3 10.482368336908644 10.477236163317931 12.385048684909295 0 0 0
279 2 3.2869783358376723 8.730459529899555 10.520020137320767 0 0 0
297 2 1.5349557558242903 8.70084046235352 12.288095510889764 0 0 0
299 5 5.051609276777774 8.704914554974085 12.3086750201113 0 0 0
301 1 8.714595969074802 8.702443743904357 12.3675800018571 0 0 0
310 2 1.5137072871382025 8.717823782466848 15.9067657295379 0 0 0
283 1 -0.277923296894869 5.092884786411248 14.131762477898585 0 0 0
303 5 -0.2675731263593998 6.8561541907232115 15.907567033234365 0 0 0
300 5 6.874250525834888 8.696563394446796 14.134508976026583 0 0 0
302 3 -2.0695132182162674 5.089211732391627 15.912553012376776 0 0 0
288 5 1.5187888790324127 6.910941006756893 14.135083831206721 0 0 0
304 1 1.529884981078627 5.0959563008984325 15.90074188971576 0 0 0
287 5 3.3611038770418307 5.095779337696182 14.115612010857713 0 0 0
305 4 3.325520043326777 6.930386364720723 15.901149944401887 0 0 0
291 3 6.8095294078262265 5.0695628390098735 14.010018991011219 0 0 0
292 1 5.077698974320343 6.922788519617402 14.097567961210503 0 0 0
306 5 5.092870429250959 5.104289206430383 15.924554294744654 0 0 0
307 3 6.837373267816597 6.943381796321966 15.940276157471287 0 0 0
298 2 3.291352737317312 8.715197591623092 14.107054731766059 0 0 0
308 4 8.656663827765195 5.1600141442473735 15.894986232655253 0 0 0
294 3 8.715511729620353 6.902714932409396 14.062903288027048 0 0 0
296 4 -0.27549750631670894 8.696545390645314 14.083085974553507 0 0 0
459 3 1.489688912505672 10.484598508714004 14.045212114774262 0 0 0
311 1 5.097489434442742 8.71057732876068 15.88577838822171 0 0 0
485 5 3.2854899959036437 10.465618756350114 15.950553330925858 0 0 0
275 5 6.873482047574721 5.189909118638152 10.537066266759494 0 0 0
445 5 8.693110662448284 10.370978573591618 10.53315354672032 0 0 0
313 2 -0.29266999543168437 5.118508887800377 17.71629185166202 0 0 0
324 2 -0.28052479415406417 6.912128237106239 19.488460805536977 0 0 0
323 3 -2.001401912691218 5.105128565360343 19.520719070608145 0 0 0
314 1 -2.0625905131915303 6.894512923661579 17.714095160709125 0 0 0
316 3 1.5505225853041575 6.8439987505330695 17.69066897756872 0 0 0
327 4 1.556178242375912 5.140718913158177 19.530311703178494 0 0 0
315 1 3.351698539480939 5.141183096220184 17.703671737431748 0 0 0
328 2 3.3475948515836165 6.913938463688593 19.524451417798975 0 0 0
318 3 5.086422542366171 7.004769121011125 17.789175223332528 0 0 0
331 1 5.107419828524085 5.150903035547935 19.546305571082243 0 0 0
317 4 6.87465424661649 5.151788625633484 17.74959818824915 0 0 0
332 2 6.881067143892463 6.931157923800608 19.534906139212957 0 0 0
319 1 8.707919815393304 6.906397982959972 17.74855404031133 0 0 0
335 5 8.699648337286424 5.156019330790224 19.508610426419683 0 0 0
198 2 -0.23569305120306136 6.930753178243681 23.057518560651094 0 0 0
501 4 8.671712795756669 10.49158103320294 17.67777940989722 0 0 0
337 1 -2.0597705785068716 8.707956947663886 19.479872280960826 0 0 0
320 4 -0.2738979766274213 8.691978806458806 17.67589326894672 0 0 0
500 5 5.168164678959279 10.426615486420708 17.66317054452659 0 0 0
339 5 1.5208593363907992 8.683713365310947 19.49924060732208 0 0 0
321 1 3.281101539468134 8.701770626415048 17.721051577919607 0 0 0
1005 3 10.485404019402376 8.667024325370688 17.744806727790348 0 0 0
516 2 6.866801601577057 10.484157652820462 19.482686089118502 0 0 0
341 1 5.117476775119768 8.714943793307103 19.513337734146646 0 0 0
322 1 6.904696550849129 8.669374491001756 17.71385426320661 0 0 0
343 5 8.681850364232549 8.696323610266068 19.4765345064379 0 0 0
325 3 -0.22826170804010473 5.174738885568773 21.302695728963513 0 0 0
330 1 1.5420271756912802 6.950910296022393 21.280330312090975 0 0 0
329 2 3.3667565991147983 5.14015303882854 21.296598434661718 0 0 0
201 4 1.6020151331752548 5.135344485349953 23.05122132506404 0 0 0
202 5 3.320572603773904 6.99252492897132 23.05754083551928 0 0 0
333 2 6.87432891441869 5.140986707194022 21.295665867127592 0 0 0
334 1 5.133025200872221 6.927016636349903 21.31909733322692 0 0 0
336 5 8.68175752942471 6.913118771256554 21.348992120993724 0 0 0
338 2 -0.26308006484881735 8.703484152673415 21.29291596025499 0 0 0
326 4 -2.0711903037004156 6.959078841124121 21.285255502572344 1 0 0
340 4 3.341379169689989 8.753547874577075 21.282301232290184 0 0 0
213 2 1.492510076474698 8.711642683878123 23.067865666845428 0 0 0
342 3 6.85554500272971 8.740073375889732 21.327472792016238 0 0 0
1023 4 10.458782698817268 8.723225653056055 21.30468622193114 0 0 0
512 4 -0.2651014888198498 10.478549629510015 19.48516659705991 0 0 0
513 2 -2.0728995237120884 10.450635461216477 21.29500558072363 1 0 0
515 2 1.5180437247160619 10.497225593061255 21.312403401194427 0 0 0
514 3 3.3328561308845535 10.485439029690816 19.41421416899896 0 0 0
499 1 1.5164060904584005 10.494097710773948 17.67619185985283 0 0 0
344 1 -0.2790627515789039 10.49661157649031 23.028078720052946 0 0 0
197 5 -2.080512497186443 5.155942871905909 23.04425607263082 0 0 -1
211 1 -2.038986838841378 8.701471541141382 23.081163022617417 1 0 -1
353 3 -0.2583766833113539 12.392977408128138 -0.3544669120306946 0 0 0
357 1 3.2671112081264604 12.293503349175566 -0.2714916640863261 0 0 0
347 5 1.43201355452616 10.52233747313755 -0.3399305160688376 0 0 0
361 2 6.914241778362752 12.278280006932114 -0.22875562608159794 0 0 0
1065 5 10.488726146342701 14.068461418592264 1.4851510626940267 0 0 0
359 4 5.12423413440306 12.266471941470453 -2.002158873377204 0 0 0
363 4 8.668444300871188 12.31558276182628 -2.041879934346713 0 0 0
1038 1 10.488867638912705 12.2946011523253 -0.2634250982276812 0 0 0
392 4 8.727251835899734 14.090466135639108 3.321386081753602 0 0 0
366 5 -0.23638972956188598 15.909614559334404 -0.3196192711569052 0 0 0
399 3 8.725970514839654 15.904382448652235 1.5224412263448666 0 0 0
358 2 1.5225396543178589 14.104057149210398 -0.2775531166692712 0 0 0
368 4 3.309076321019463 15.915519651702242 -0.2841918229239144 0 0 0
388 1 6.9196217582036645 14.089259927754947 1.491319497707607 0 0 0
362 5 5.096392840302677 14.097342459187296 -0.19178338711348028 0 0 0
370 4 6.888319329571254 15.927625252635833 -0.23907765850036497 0 0 0
360 4 6.879596066878167 14.102397884766125 -2.0330800152955164 0 0 0
364 1 8.686191263663376 14.097324420970336 -0.23778360560748565 0 0 0
371 3 8.662377782137114 15.906703132686363 -1.9940218093292883 0 0 0
1037 3 10.476931561871355 14.134267038085127 -1.9404629342813093 0 0 0
372 3 -0.2650692186769176 10.517175312632247 1.5141562681376688 0 0 0
381 3 -0.24363033678664703 12.365407328440895 3.3763592939874454 0 0 0
379 5 -2.0429343484104825 12.383068063139685 1.5405718892587557 0 0 0
373 5 -1.9539686344592186 10.50598056577625 3.3583846282402825 0 0 0
383 4 1.5159652525810683 12.333811713226007 1.5357748708071688 0 0 0
385 3 3.2850223246136006 12.349759324459223 3.3398259525337135 0 0 0
398 4 6.90190350136916 15.883074198669194 3.306517930980322 0 0 0
389 3 6.9129349010791294 12.35195322943128 3.2959585896122325 0 0 0
387 4 5.087163343027422 12.279371233383513 1.4932645218935618 0 0 0
1058 2 10.47403468118863 10.547383346855902 1.5077201405258356 0 0 0
391 2 8.686316752286693 12.294191495717698 1.5133759541536422 0 0 0
390 4 5.121695731888083 14.098084974208637 3.288354673485675 0 0 0
378 2 8.69374002126969 10.537547457480535 3.2690173494109693 0 0 0
394 2 -0.2474011770082194 15.916130835315224 3.3716243563125396 0 0 0
380 5 -0.25017304528364187 14.158971330949658 1.5882928451997786 0 0 0
393 4 -2.0717822320690744 15.913852511583185 1.546059536495758 0 0 0
384 1 3.298465154369824 14.111155015342522 1.5008177024298537 0 0 0
395 3 1.5574150350188112 15.895925968659391 1.5267663052031446 0 0 0
396 5 3.3786410473693125 15.892321180783144 3.2591151492116857 0 0 0
386 1 1.5644985650332572 14.13887275584255 3.3452009476556737 0 0 0
397 1 5.1046783758629255 15.935455802982363 1.5100717698079291 0 0 0
382 1 -2.0785628923013704 14.148342086476198 3.3438689489383124 1 0 0
348 1 6.901344992888277 10.501184714146461 -2.0483312388157917 0 0 0
1030 3 10.445549289750826 10.509911030820838 -2.026340047924251 0 0 0
345 3 -1.9838395228005758 10.50705980112919 -0.34551741506519895 1 0 0
376 2 6.911624817487625 10.50555487144515 1.5312184066303314 0 0 0
377 4 5.063410729381731 10.520974324169284 3.3321930159004216 0 0 0
350 3 8.647342887715556 10.513439011713205 -0.23117283529661453 0 0 0
356 5 3.262710979743683 14.04622507331226 -2.0464898367994806 0 0 1
355 1 1.5003133101934283 12.294328275929253 -2.075440893950354 0 0 1
367 1 1.5097156554159104 15.92065307651761 -2.05206187838888 0 0 1
409 1 -0.2742859618951083 12.30791228623346 6.955284650361586 0 0 0
407 4 -2.054647572801449 12.322827137090771 5.13993690845594 0 0 0
1118 3 10.481520966341192 14.147980767800824 8.690370468165426 0 0 0
434 1 3.3085205760647005 14.097963553826471 8.704955525351046 0 0 0
411 5 1.4919565421998588 12.353350969524294 5.19415815593798 0 0 0
413 4 3.312125128807052 12.317861121027546 6.94833363653343 0 0 0
455 4 6.888524592088684 15.864921302812732 10.485202536874187 0 0 0
415 2 5.090143717741282 12.305300725463352 5.103255789539633 0 0 0
417 4 6.875320033010167 12.299235648038891 6.88186371610971 0 0 0
439 1 1.5170158104134817 15.877184105458563 8.704510969664756 0 0 0
419 4 8.724640532317144 12.321348012017534 5.103054025164716 0 0 0
441 1 8.706312488065961 15.861131124242949 8.71545495492024 0 0 0
440 2 5.094360550131582 15.888027101419747 8.715091391171516 0 0 0
408 3 -0.2961672701674518 14.161980346782162 5.11773843487886 0 0 0
422 2 -0.2708805661592234 15.883713281053579 6.9234426376938245 0 0 0
410 3 -2.042048205661849 14.162915500485552 6.944496686271209 0 0 0
421 2 -2.066342728723745 15.895744120017048 5.116586437916986 0 0 0
414 1 1.4997737415029333 14.110775766628207 6.954800669935504 0 0 0
423 3 1.5061619311348649 15.862616738065181 5.156334365019864 0 0 0
412 5 3.325780090817954 14.131050037139193 5.144206781218391 0 0 0
424 2 3.3140106966956546 15.86906759112757 6.9425600183736265 0 0 0
426 5 6.906953473218257 15.922805349405392 6.894408584532298 0 0 0
418 5 5.1094432787850375 14.090193110175756 6.935779513486937 0 0 0
425 2 5.115616822980879 15.905763266891787 5.129213350511862 0 0 0
416 1 6.853245418816862 14.10555122266803 5.127852419250886 0 0 0
427 3 8.749676428273219 15.865689776365159 5.074428454011013 0 0 0
420 4 8.721234252381521 14.114749785117915 6.857742843381324 0 0 0