LAMMPS data file via write_data, version 2 Aug 2023, timestep = 10000, units = metal

1372 atoms
5 atom types

-2.0846936729299914 23.084693672929845 xlo xhi
-2.0846936729299914 23.084693672929845 ylo yhi
-2.0846936729299914 23.084693672929845 zlo zhi

Masses

1 58.933
2 58.69
3 51.96
4 55.847
5 54.94

Atoms # atomic

3 5 -0.20941764653053255 -2.046669037272703 -0.30940915954564313 0 0 0
8 2 1.5484426718988258 -0.25202648183110277 -0.2955845853239063 0 0 0
6 4 3.3351483849130426 -0.2757188133442661 -2.0462324555107325 0 0 0
12 2 5.149425916140385 -0.2584026779901585 -0.3111407255529018 0 0 0
11 1 6.875507836392216 -2.069899485132289 -0.2915748487540019 0 0 0
14 4 8.687272839218878 -0.2800682858137384 -0.2740103310445425 0 0 0
729 1 10.487705636835393 3.300705699658834 1.5205743398576461 0 0 0
56 3 8.825910109096807 3.277720975304196 3.3022974716645375 0 0 0
17 4 -0.26407012917633094 1.5179972162638904 -0.29264584528158955 0 0 0
55 1 8.719958349858716 1.5249018394351477 1.5250322900422815 0 0 0
22 3 1.5844564854750944 3.2635377610965945 -0.29906351220645316 0 0 0
21 1 3.332597225168563 1.5513946330594341 -0.2941242237832725 0 0 0
19 2 1.5702860927809763 1.5226355929782875 -2.0826030375266322 0 0 0
20 2 3.3577115089253575 3.3084974791195827 -2.078375275706962 0 0 0
25 2 6.900607972096538 1.5241808770193075 -0.2899779976873762 0 0 0
26 1 5.088654197895802 3.318799980409738 -0.27686644105752567 0 0 0
24 4 6.908715206718776 3.306422240955435 -2.0527816898641524 0 0 0
28 2 8.691381904031662 3.2827152211909105 -0.269565334226427 0 0 0
702 3 10.460703094851258 1.5805261164201436 -0.2693172137555279 0 0 0
31 1 -0.23705706634005083 -2.0675208337004785 3.3211864159919484 0 0 0
30 5 -0.18923950644143597 -0.25271391043426666 1.5385650786550813 0 0 0
32 5 -2.0498021735845393 -0.2675209653174533 3.3256845919899907 0 0 0
18 3 -2.080758038489755 3.343074119542408 -0.30564041905426353 1 0 0
33 1 1.522077448869912 -2.0789852471808374 1.4948323711067935 0 0 0
36 5 1.6185039697931465 -0.3130269163639095 3.270040121903113 0 0 0
34 4 3.3600009340386796 -0.2830126642853272 1.424550039001493 0 0 0
716 1 10.484212298305208 -2.0676265405086354 3.330441971387567 0 0 0
38 4 6.869970217015055 -0.25167768483617536 1.4875084060079447 0 0 0
40 3 5.05608292473045 -0.2468683374625885 3.3060711965088365 0 0 0
4 4 -2.0567998814364685 -0.29000449658138905 -0.3054714045393946 1 0 0
715 4 10.49429233053186 -0.3078011178910412 1.5239184776390096 0 0 0
42 5 8.691796666766209 -0.2753778881709625 3.27061089630641 0 0 0
44 3 -0.2026204498666052 3.285704156364349 1.5661490428276323 0 0 0
45 2 -0.20836565209363767 1.5444072294909341 3.3362757294708785 0 0 0
46 4 -2.0564553162081705 3.331423953696296 3.3808686363012623 0 0 0
23 1 5.120349738173165 1.5398458407408644 -2.051115037090896 0 0 0
50 2 1.5479014880485642 3.337206533176435 3.3234897306345204 0 0 0
47 1 1.5545236841626688 1.5342025046226035 1.5233138662505004 0 0 0
49 3 3.297874966507779 1.5935846428100906 3.2496401391142657 0 0 0
48 2 3.3092975657419945 3.3315362141055083 1.5096677359511248 0 0 0
52 4 6.903474008803732 3.2944361915248037 1.4805172190756863 0 0 0
51 2 5.090815308402888 1.5502783596567462 1.4740884785544712 0 0 0
53 5 6.910714352267206 1.540601239803849 3.300723657204119 0 0 0
54 5 5.081800490087372 3.3316040914547234 3.3068833475261887 0 0 0
10 2 6.893672024166922 -0.2566095833392923 -2.048144763211301 0 0 1
9 1 5.143537605327285 -2.075149083874831 -2.0432136573602158 0 0 1
58 3 -0.22965175967632784 -0.27531211570629494 5.080546648769578 0 0 0
59 4 -0.2455387669229731 -2.040005055495167 6.917729891338673 0 0 0
64 5 1.5723290234030785 -0.25432680774578187 6.959025155875336 0 0 0
62 4 3.359081927560881 -0.28960752168183945 5.164620611047568 0 0 0
68 4 5.126875726171694 -0.283062495608446 6.971070685306095 0 0 0
66 4 6.885508441712684 -0.28107426067751723 5.140280535252491 0 0 0
92 5 -2.08264848555455 1.4832111089983142 8.72656087974652 1 0 0
67 1 6.911264648846424 -2.0831443961406078 6.937329685493849 0 0 0
70 1 8.710340786309303 -0.28857157663968813 6.945283482251932 0 0 0
69 5 8.646697560302103 -2.079516580970791 5.118816101681254 0 0 0
72 2 -0.22115945309763652 3.336158881125025 5.122929384782729 0 0 0
73 4 -0.27739192432892734 1.4760742008534877 6.93130384333154 0 0 0
71 4 -2.0566008692764757 1.499871632998472 5.1165027853790015 0 0 0
75 5 1.5746820031746822 1.5500955129428866 5.114095512809412 0 0 0
78 3 1.5522573436472564 3.2933978945384714 6.938162041821441 0 0 0
76 1 3.313680098211145 3.3273839807208425 5.1317324988711945 0 0 0
77 1 3.3305742889523695 1.542316205870051 6.938981746165821 0 0 0
81 5 6.922263474508624 1.4891484485962985 6.960195219006094 0 0 0
79 5 5.07135502282093 1.5718418576910251 5.17431953202059 0 0 0
82 2 5.117939042983523 3.324485719985178 6.942324271556482 0 0 0
80 5 6.905393122259518 3.3478429955894273 5.157190272725765 0 0 0
84 5 8.746324171125943 3.364478802374056 6.927437743745763 0 0 0
83 5 8.736210706926807 1.513130483499998 5.16733847694692 0 0 0
743 3 10.487900170619255 -0.27966449629518464 5.119235742850623 0 0 0
86 3 -0.2551301570999582 -0.32494873071698405 8.795288033033653 0 0 0
88 5 3.302263319353456 -0.2332477707498122 8.723942652718367 0 0 0
96 2 5.126203526140292 1.5406870197964488 8.728001240670372 0 0 0
97 3 6.885715488245081 3.3301920513011583 8.71533486905832 0 0 0
90 1 6.942183754525056 -0.2821380652728681 8.724974258934532 0 0 0
91 2 8.696641507955036 -2.0452763660043707 8.74281611032432 0 0 0
74 3 -2.02660501525942 3.3402814802457743 6.843499481966276 0 0 0
57 3 -2.0700977129191416 -2.01439379930787 5.166257884603135 0 0 0
93 5 -0.2792157829785857 3.308926911107995 8.743612694266783 0 0 0
94 1 1.526360361340932 1.5262061485779206 8.735354243990749 0 0 0
95 4 3.345322320336891 3.3246032494273394 8.713227527843172 0 0 0
98 3 8.738679776983147 1.492515192861189 8.785916264459459 0 0 0
104 4 5.137994826987538 -0.2779216345281926 10.463635035805398 0 0 0
112 2 8.708855951875512 3.3323072971117336 10.48792002231947 0 0 0
109 5 1.5744498864294856 3.2972511788304155 10.475301005464816 0 0 0
110 2 6.919515489362091 1.5484010138190736 10.480717703247203 0 0 0
114 4 -0.273658850858063 -0.29370773357670116 12.280847516882998 0 0 0
118 3 3.374839737636339 -0.2760551251332224 12.318881361640521 0 0 0
102 4 1.523936948078368 -0.2810984859895463 10.524267354722559 0 0 0
122 5 6.8653254156529755 -0.28587452991810014 12.270087167300046 0 0 0
800 2 10.490949331190725 -2.0476757533349983 14.028989310585741 0 0 0
123 4 6.870900974392791 -2.0789767005947155 14.098462421957615 0 1 0
143 1 1.5455485229315447 -2.069755083202626 15.924314659887283 0 1 0
105 1 8.684223456440666 -0.2756709548239725 10.50861830713837 0 0 0
128 3 -0.3168624538465108 3.353500709126274 12.292670355382352 0 0 0
106 2 -0.28558370279014095 1.5393429343515654 10.509371851857564 0 0 0
107 2 -2.080607056636868 3.315090227676889 10.50591467588663 0 0 0
121 2 5.094419114571163 -2.0736755672370215 12.314980923031525 0 1 0
131 5 1.5503287249562947 1.5349545460544458 12.310409729078485 0 0 0
132 2 3.332951846320088 3.3094710522359083 12.319941735959393 0 0 0
111 3 5.085609297238547 3.2936553518191163 10.560480795757154 0 0 0
136 1 6.8977170466547735 3.349147119546577 12.28433496165003 0 0 0
135 4 5.12139224157664 1.5343698338128031 12.332096019848336 0 0 0
103 1 6.919793720049727 -2.0744068284721884 10.507550664902048 0 1 0
139 4 8.684944075345516 1.5644267271261036 12.266042151039757 0 0 0
115 1 -0.22403835630883906 -2.0647931475447163 14.130685609685276 0 0 0
142 2 -0.25035119997273786 -0.28466599767908257 15.90700421847172 0 0 0
144 3 3.2882077146467505 -0.24061441932097974 15.96964826301936 0 0 0
120 3 1.4966501936646988 -0.3050599158766527 14.131718881560083 0 0 0
154 4 8.724832731979376 1.5368942022672767 15.87519646156541 0 0 0
108 2 3.3343484777507193 1.5274597390832223 10.516410028042365 0 0 0
124 2 5.089397822227256 -0.27867420704386864 14.142347304569032 0 0 0
146 3 6.902269617856684 -0.26091834898495553 15.892320814782071 0 0 0
140 1 8.699410445791237 3.367598422665812 14.084087702356143 0 0 0
126 5 8.71553460938582 -0.28652703225346876 14.064978681758122 0 0 0
149 5 -0.29652577975251126 3.326088582122011 15.931976567780962 0 0 0
129 5 -0.3052763145754559 1.5177439754533892 14.141956683895174 0 0 0
133 1 3.32216313553933 1.5325818780585945 14.127184328030644 0 0 0
150 2 1.5362439246183162 1.4984173250425281 15.913240646245145 0 0 0
151 2 3.3028969380998374 3.3083334512889286 15.915966253549733 0 0 0
134 5 1.5414204675177459 3.3216837584130876 14.143248665489313 0 0 0
153 3 6.9435236446903135 3.3164270537053633 15.875791765641688 0 0 0
137 4 6.918856199925569 1.5482262072731898 14.082890005292356 0 0 0
138 1 5.0915779676126345 3.330300436379058 14.095638985363085 0 0 0
152 5 5.101294219972348 1.5689341296212262 15.904521200555282 0 0 0
147 2 8.682076923749314 -2.0212897047539764 15.891248056406747 0 0 0
113 4 -2.048802994610803 -2.080134622807381 12.289147592374473 1 0 0
148 1 -2.067381485410049 1.5219826390036875 15.900005434655139 1 0 0
827 5 10.493610481959234 -0.3457213939373061 15.891874865200972 0 0 0
116 4 -2.0527699366599492 -0.28668308803599113 14.10468828756256 1 0 0
141 2 -2.02200867572974 -2.039002751823289 15.91031958173192 1 0 0
117 2 1.5535494024400598 -2.0549697525093293 12.316109112527563 0 1 0
170 3 -0.14215937471315584 -0.2528335243935989 19.57312514968244 0 0 0
155 3 -0.22151399292878246 -2.0117954141671732 17.692782968172203 0 0 0
158 2 1.5472686479656244 -0.275029076187217 17.697258540201798 0 0 0
174 4 3.3167664962978156 -0.2701894783848943 19.48611698788092 0 0 0
870 1 10.498811806364458 1.5116435483757638 21.33327879120854 0 0 0
160 4 5.121252725194185 -0.24184120654311597 17.74076659169838 0 0 0
178 1 6.864336667942284 -0.2626025178211917 19.52754162951732 0 0 0
193 1 6.8881536938542425 1.5154900993378935 21.346276623503574 0 0 0
161 3 8.64189110415225 -0.26482184408110115 17.762140271604455 0 0 0
855 2 10.45425433022032 -0.2737964918111798 19.553510929812003 0 0 0
162 5 -0.2846137205079978 1.4776350158178722 17.687632712212068 0 0 0
184 4 -0.24708091996027803 3.308220351115268 19.497974072055356 0 0 0
196 1 8.693481926500047 3.3332580452794067 21.3106761365212 0 0 0
165 5 1.5678762798191332 3.3492986447087993 17.69742732496672 0 0 0
187 2 1.5441021444339134 1.514119292841834 19.501551739464485 0 0 0
164 1 3.294666273452553 1.5400107444578008 17.699228092452298 0 0 0
188 4 3.3450448139304374 3.304990653145359 19.50338951693203 0 0 0
192 5 6.8990622672677056 3.27620339380433 19.569265669433342 0 0 0
167 4 5.123302645911926 3.303522701051875 17.737036314348906 0 0 0
191 1 5.174365777553229 1.538689384910829 19.521420824065494 0 0 0
166 1 6.935769205800957 1.5241898167198942 17.706803126479006 0 0 0
195 4 8.688362715705814 1.5125299610794847 19.560073594555888 0 0 0
168 5 8.680522382966492 3.325962830066056 17.702962978140736 0 0 0
27 1 8.690725354313683 1.5241478985143313 23.054136456016263 0 0 0
2 5 -0.2065218611855884 -0.27591369351615863 23.032365862179674 0 0 0
176 1 1.5460250083627536 -0.27095189654364443 21.3028382353198 0 0 0
180 4 5.112104076265321 -0.27457986561112785 21.308507205769303 0 0 0
159 4 6.896840835904603 -2.063328815704846 17.725882623011117 0 1 0
179 5 6.861910830863088 -2.0313030103082457 21.298528461509278 0 0 0
172 4 -2.074247137492229 -0.282682028667227 21.330849779295114 1 0 0
182 1 8.667257207652684 -0.2751727355171966 21.337505277393795 0 0 0
856 5 10.468977489956256 -2.0818588087555154 21.29827038399823 0 0 0
185 1 -0.21896085721398095 1.5366558032088218 21.311354473125572 0 0 0
190 5 1.569257602546479 3.31190964408627 21.29907799784585 0 0 0
189 3 3.3590078621158903 1.523508086354487 21.31013890736312 0 0 0
175 4 3.3147325294265038 -2.0755535416386115 21.294899419104308 0 0 0
194 2 5.10878889041266 3.309534396279675 21.3275773640175 0 0 0
181 2 8.680802531217813 -2.0287052926437514 19.55593513302592 0 0 0
701 5 10.468624718631197 3.319634702567269 23.04391772408665 0 0 0
156 1 -2.0485185456756945 -0.25529402401906276 17.693524794035575 1 0 0
169 3 -2.054818381525383 -1.9846736570151324 19.471275730314307 1 0 0
869 4 10.485888305474617 3.3245495429886818 19.520006652822257 0 0 0
183 5 -2.0358431479434635 1.496260920334609 19.554652200618047 1 0 0
186 1 -2.0485836859450686 3.302838580939593 21.294060044435607 1 0 0
15 5 -2.0793937670520997 1.5247778544080923 23.03160998177164 1 0 0
848 5 10.496057198277883 1.5231787897517384 17.71615027506269 0 0 0
163 1 -2.074367109815544 3.2940102446879305 17.72062669314738 1 0 0
687 5 10.463919741775577 -0.2565831886952236 23.078076284728002 0 0 -1
16 5 -0.26229701330375094 3.2938079920202896 23.041754864135186 0 0 -1
199 4 -0.22988934216488463 5.108499039449482 -0.3104888138795697 0 0 0
918 5 10.442836381542437 8.726514896065785 3.221588760412046 0 0 0
204 2 1.557991577481857 6.91332889146992 -0.300701393031056 0 0 0
203 3 3.3140707875608393 5.097879822474655 -0.26695724045858105 0 0 0
208 4 5.14098073355488 6.916444581053688 -0.27459798670439167 0 0 0
207 1 6.9209484889056485 5.099926161379996 -0.268356578027941 0 0 0
210 4 8.657296876997712 6.926168370818024 -0.2532103434017387 0 0 0
884 4 10.487644944056049 5.086681358508067 -0.27316205140563765 0 0 0
345 3 -2.0181524065065637 10.40169262941326 -0.3360974729130102 0 0 0
212 3 -0.22072739121440343 8.612908792142225 -0.35790527815840645 0 0 0
214 2 3.2886850709350828 8.71769393658064 -0.2949745132350376 0 0 0
216 1 6.924365565179144 8.760090100448188 -0.29038106855900636 0 0 0
215 3 5.151377433185858 8.743550679928383 -1.9928006682060149 0 0 0
1030 3 10.44950067379618 10.495318376356632 -2.0214161641247137 0 0 0
219 3 -0.1882244816437623 6.8485464767587025 1.510689154836464 0 0 0
220 2 -0.21979810944415865 5.083167868817283 3.3532344235970135 0 0 0
221 5 -2.0191819395659274 6.844769949946078 3.3483162662413424 0 0 0
224 2 3.293951385728184 5.110271029509695 3.3321279607095473 0 0 0
223 4 3.3165360283119627 6.917844452688693 1.5345564921021313 0 0 0
225 3 1.5226176485462017 6.8520537598508415 3.3792621776771825 0 0 0
222 2 1.5481717683033036 5.081479902399368 1.5359257189964022 0 0 0
226 4 5.109392409523967 5.130083619947835 1.5285877804351482 0 0 0
227 4 6.876832706038834 6.935946371864694 1.5502052514950204 0 0 0
228 4 6.88043565509891 5.122437448044785 3.3104716932114093 0 0 0
229 1 5.056450634737645 6.961959384828416 3.3669876797607396 0 0 0
230 5 8.711396373354585 5.1149115010077955 1.5289366547155534 0 0 0
231 1 8.711303137067326 6.925412827550879 3.286567597556225 0 0 0
372 3 -0.26452446978847605 10.495079256347546 1.5244666810205212 0 0 0
233 3 -0.24291459684359595 8.683943311698373 3.3967820968367137 0 0 0
232 4 -2.0301603673896 8.659859052170225 1.527949710033479 0 0 0
235 2 3.2744699648486963 8.727607951725794 3.3560240814072793 0 0 0
234 3 1.551209942676278 8.693819881320206 1.5146382849537414 0 0 0
236 4 5.094310975925528 8.733606131821299 1.5200008975806032 0 0 0
237 2 6.88671677725729 8.737038221864443 3.2963796792042452 0 0 0
897 3 10.42929430529329 8.71104087609126 -0.1990635625915222 0 0 0
238 1 8.664661267412898 8.736589411671654 1.5404165323601127 0 0 0
211 1 -2.0751737024949803 8.717056928120547 -2.081148488641732 0 0 0
218 3 -2.0390364004750263 5.1120870894777815 1.5344962194817224 0 0 0
349 1 5.116768504789142 10.492326089696242 -0.26589670415391353 0 0 0
217 1 8.679034644315404 8.721289568904435 -2.0682114978443344 0 0 1
206 2 6.905346418261803 6.924798477754881 -2.0549059522673474 0 0 1
209 4 8.665425891218346 5.1177292625236275 -2.07341572927011 0 0 1
883 4 10.468280596113374 6.918840987756933 -2.0401158055589654 0 0 1
240 2 -0.2479283793522687 6.893377783605514 5.159196386484022 0 0 0
241 5 -0.2341112946801283 5.150987170923193 6.9367834100938826 0 0 0
242 2 -2.0353279846206007 6.885431977041479 6.925423547075308 0 0 0
243 2 1.5352167968140689 5.105744972039683 5.119903683838564 0 0 0
246 1 1.5088496835714702 6.9373500864095305 6.917600842688504 0 0 0
244 5 3.3266515573263895 6.949336483781768 5.150217469576977 0 0 0
245 4 3.30262273919791 5.137194459341262 6.932099995368933 0 0 0
247 4 5.092133034620728 5.128148062311215 5.12968431127594 0 0 0
250 2 5.127512455411442 6.9800252118076624 6.919404148349033 0 0 0
248 5 6.857533247770962 6.964225032105091 5.072843834192675 0 0 0
249 1 6.901933210476813 5.150858329827884 6.8977009455631055 0 0 0
251 3 8.738197937727927 5.138260861725883 5.030665936379268 0 0 0
252 3 8.610115411349687 6.938271417480552 6.937219686883766 0 0 0
254 1 -0.2507279732171123 8.704842158155708 6.93798581131624 0 0 0
253 4 -2.0375381443441847 8.701196950399556 5.171255888529881 0 0 0
255 2 1.517924379756644 8.704388628131479 5.154557401038184 0 0 0
256 1 3.300792344701832 8.718433401822875 6.9076032646426855 0 0 0
257 1 5.085366802095562 8.736900242654212 5.109288836928854 0 0 0
258 1 6.88158411444729 8.736705946000834 6.908169280628268 0 0 0
925 5 10.480014730976377 6.938718331367131 5.060785993057404 0 0 0
405 3 5.053253756917467 10.474686029054784 6.898520495653413 0 0 0
259 4 8.670897930059802 8.723878679265503 5.053868651802931 0 0 0
406 5 8.69235066291899 10.47236381999347 6.889862172743337 0 0 0
939 3 10.473830601027284 8.674844249956482 6.915465937545578 0 0 0
271 4 -0.2775414979871716 5.144450994177018 10.470315383601354 0 0 0
261 1 -0.2716114383214426 6.927533121596248 8.707573481738573 0 0 0
260 2 -2.0725963539752024 5.121557806765786 8.720094695370769 0 0 0
262 2 1.5182193134440314 5.16300347760142 8.715263679476623 0 0 0
263 5 3.2598654968489966 7.00097934019586 8.677022370539978 0 0 0
267 4 -2.063291577347949 8.71542099541416 8.703621956284012 0 0 0
264 5 5.151281837581598 5.1696366826735325 8.661366197699236 0 0 0
265 1 6.904430877481423 6.935595831198823 8.676767157797036 0 0 0
1114 5 10.467290286872307 10.490255365118438 8.718853135048294 0 0 0
403 5 1.5168755816232151 10.4931278854854 6.936553958977107 0 0 0
266 4 8.689206203960026 5.117894091980785 8.729895529036042 0 0 0
239 2 -2.025337864342007 5.118961346383467 5.133238628788389 0 0 0
268 1 1.4769893282697717 8.719538212234475 8.705915547205894 0 0 0
270 2 8.698054246065777 8.67897783803135 8.711113921490126 0 0 0
430 3 6.907925641457832 10.451087811186317 8.690458387538207 0 0 0
269 1 5.112103747326985 8.7085912048848 8.708452893527042 0 0 0
276 3 5.088503291857332 6.983392866367916 10.490021600210925 0 0 0
280 3 6.9693320236189145 8.661738965210867 10.484660325607091 0 0 0
282 5 -0.2566700921276489 6.877666167009063 12.316993613280768 0 0 0
311 1 5.103957720860896 8.719149397603754 15.895515076968506 0 0 0
285 3 1.5272980106949452 5.089883703442195 12.305145522075886 0 0 0
286 3 3.2885257075618615 6.943347168570801 12.347858161762526 0 0 0
274 1 1.5092775580054427 6.960457548768005 10.502945576303988 0 0 0
289 2 5.075633290634564 5.1159833221410285 12.303146119948494 0 0 0
290 4 6.896169883118127 6.960145842184703 12.34523856062353 0 0 0
485 5 3.296147757451437 10.491972594077154 15.949740084541393 0 0 0
293 3 8.747063969070695 5.024730460066965 12.305114523750195 0 0 0
277 3 8.753318102751368 6.919567957674092 10.52099184941584 0 0 0
956 1 10.48845014859022 5.122151353083703 10.506160406662538 0 0 0
297 2 1.522274221073234 8.718124667400682 12.318904279179218 0 0 0
279 3 3.22807395354587 8.760697522773281 10.532045615852534 0 0 0
299 5 5.066553200959124 8.737490427452 12.363813973625826 0 0 0
295 2 -2.080713052523742 8.705593951559619 12.286931845871036 0 0 0
301 1 8.727768298711823 8.719094706336655 12.35744160633984 0 0 0
1142 3 10.436911959528587 10.481180689241468 12.355569040952977 0 0 0
275 5 6.888614680921782 5.1736624142791205 10.56487377686186 0 0 0
283 1 -0.2759155250827177 5.10260788598497 14.14503449014232 0 0 0
303 5 -0.2780397440934222 6.889447640127788 15.92004804326914 0 0 0
273 4 3.3149220567813598 5.161555567723994 10.500768698913419 0 0 0
288 5 1.5088889095417384 6.915099228623158 14.166152958336252 0 0 0
304 1 1.5084026058537434 5.086555742597112 15.917834304872223 0 0 0
287 4 3.3213870276650135 5.105827722193223 14.107320443876986 0 0 0
305 4 3.326630130780426 6.930965978533416 15.892368935419045 0 0 0
291 3 6.849715779292787 5.087048708490181 14.019057065028543 0 0 0
292 1 5.095152092763234 6.94264640342237 14.10171685209237 0 0 0
306 3 5.080385523994325 5.036674033280554 15.888933595500111 0 0 0
307 3 6.836062791611466 6.918987033341536 15.929197762771304 0 0 0
294 3 8.741954078624207 6.922584479151619 14.067868888608121 0 0 0
308 4 8.688220257876075 5.156424347712997 15.882768343074698 0 0 0
312 4 8.722685834592635 8.637676754811942 15.937001185207697 0 0 0
310 2 1.5274195423052856 8.749561685394495 15.896973675167587 0 0 0
296 4 -0.28672427500136943 8.71170884358133 14.104176852909333 0 0 0
300 5 6.892606269872668 8.698645925871913 14.140222753887532 0 0 0
281 4 -2.0769153164169114 5.113612420113949 12.324009718110473 0 0 0
298 2 3.292434955632651 8.73936899647642 14.122260544981213 0 0 0
272 2 -2.071635600040367 6.917312543527929 10.512714528108903 0 0 0
445 2 8.680569834376048 10.467451846898323 10.505439495827861 0 0 0
278 3 -0.25386723177230397 8.684909435457348 10.527846082686574 0 0 0
313 2 -0.29960743224593384 5.117068867538245 17.708043770653486 0 0 0
324 2 -0.280045625068127 6.896020191794887 19.47715625982361 0 0 0
316 4 1.5403015264891928 6.894013912612412 17.677967223852413 0 0 0
327 4 1.5743178330089418 5.147886138743304 19.493030101495535 0 0 0
315 1 3.35389578678344 5.132053414300528 17.664683972179507 0 0 0
328 2 3.3396309986213137 6.913455907348931 19.523027592940423 0 0 0
318 5 5.072501294828976 6.982703871420275 17.744930857504045 0 0 0
331 4 5.100141067389503 5.1367664171317315 19.540245520769833 0 0 0
317 4 6.891488500566904 5.134659639957668 17.72697831254486 0 0 0
332 2 6.8980996010282984 6.936977995741258 19.51910614861453 0 0 0
319 1 8.710556564948917 6.892890132980339 17.745689738938097 0 0 0
335 5 8.704701481828165 5.137870292378998 19.51912227339548 0 0 0
344 1 -0.279405878939685 10.488936322253817 23.033533137333922 0 0 0
197 5 -2.0740520258707846 5.135110798043677 23.028558542665117 1 0 0
320 4 -0.2800525953854596 8.704090664503257 17.653218868837328 0 0 0
500 5 5.159186205752396 10.44520285038692 17.67122957858514 0 0 0
512 4 -0.2750374857189658 10.488798557313746 19.4664602497768 0 0 0
339 5 1.5187397330030752 8.672871108397823 19.466698375805997 0 0 0
321 1 3.3013810951440763 8.72121310279718 17.71354785668558 0 0 0
341 1 5.11691606176092 8.714046722972324 19.505292058805452 0 0 0
322 1 6.89784221461574 8.67024892537229 17.70435600958387 0 0 0
516 2 6.896623983702572 10.4676001813221 19.483855220736032 0 0 0
213 2 1.5204314850538263 8.702853277814457 23.07579390147161 0 0 0
343 5 8.703394628218158 8.686881648028562 19.45877339379446 0 0 0
501 4 8.686625912019249 10.481972259037157 17.67920438698126 0 0 0
325 3 -0.2341818391154476 5.188504618292829 21.272002982493856 0 0 0
198 2 -0.23643961476484818 6.926756595175774 23.07060278759991 0 0 0
518 4 8.736998371737322 10.487634192518751 21.2908742863052 0 0 0
202 5 3.316963414717348 6.942596123529506 23.049805046040078 0 0 0
330 1 1.5339538302503692 6.93501877150017 21.275285760882372 0 0 0
329 1 3.3361305225340843 5.142827552670563 21.321785120793557 0 0 0
201 4 1.5556677839582715 5.13210059655192 23.06579889612466 0 0 0
205 4 5.1491747198184035 5.120870498896611 23.079294957771125 0 0 0
333 2 6.900318184471216 5.151967610819057 21.292170032910338 0 0 0
334 1 5.131147958267428 6.948058562790453 21.313559231996077 0 0 0
514 3 3.2741559541544127 10.494572580621929 19.408453417741264 0 0 0
337 5 -2.084112399613872 8.672142907830013 19.46895504602543 1 0 0
336 5 8.721479278927196 6.923849922762913 21.325994902475838 0 0 0
342 3 6.892922475103892 8.716225626767647 21.32494865252989 0 0 0
338 3 -0.24962126027738135 8.703826943699013 21.330823124062444 0 0 0
513 2 -2.0757897368766454 10.465420308692037 21.29569921982003 0 0 0
340 4 3.327310080811269 8.751851152003335 21.28658998363236 0 0 0
314 1 -2.0652208594293917 6.893872694880716 17.679316117902676 1 0 0
323 3 -2.0491013253758794 5.128043390913681 19.475113569894113 1 0 0
353 3 -0.29816571406552556 12.368757517416984 -0.33762067341280205 0 0 0
357 1 3.25746367773249 12.31627553305086 -0.2651254758338071 0 0 0
347 5 1.424131470112794 10.529254235309008 -0.33495192381696565 0 0 0
355 1 1.48435507600822 12.30654637901298 -2.0629211395093874 0 0 0
382 1 -2.0730617451378315 14.145837164862158 3.3409805315175993 1 0 0
361 2 6.921923529530842 12.29172558750073 -0.24713733426510037 0 0 0
359 4 5.118747614749103 12.293237142513567 -1.9707785898603918 0 0 0
348 1 6.907853097078612 10.501412687160524 -2.04782648397132 0 0 0
399 2 8.71977654454946 15.902392964677139 1.5330426808108406 0 0 0
363 4 8.697067945179112 12.309294953423334 -2.0392331215219537 0 0 0
376 2 6.906157382163928 10.51813537389009 1.5313017225377294 0 0 0
366 5 -0.2653687121733369 15.95841963491265 -0.3134738110611893 0 0 0
392 4 8.705793334251775 14.092552327658787 3.3285208044800956 0 0 0
358 2 1.4854516736604861 14.116922441993214 -0.26775787120161576 0 0 0
368 4 3.2921010005274236 15.924776077889891 -0.2755165076070394 0 0 0
367 1 1.4873270710934974 15.932852437905387 -2.047005311833059 0 0 0
373 5 -1.9751691053468754 10.5110595150619 3.364221825143739 1 0 0
362 5 5.094300184565366 14.107031994576479 -0.19307590238729805 0 0 0
370 4 6.902476503523613 15.915267616074868 -0.24054252212627014 0 0 0
350 3 8.642516220637749 10.519432215191307 -0.22851302775813095 0 0 0
364 1 8.687540822806186 14.105493810008593 -0.24434922177780663 0 0 0
371 3 8.683958646724394 15.928768070823104 -2.0015072858602148 0 0 0
381 3 -0.23916132530213577 12.371837400374902 3.3680693960366077 0 0 0
374 3 3.291193695692779 10.505603824876829 1.4536277631420504 0 0 0
375 3 1.5187058176511419 10.500857951785914 3.398266640603884 0 0 0
383 4 1.500202112169822 12.338542477801195 1.5302329451196244 0 0 0
385 3 3.2894057212735457 12.394047459816075 3.330251808081275 0 0 0
389 1 6.8937117234059535 12.34409645690162 3.3072068100180485 0 0 0
387 4 5.105134079822128 12.290730578768178 1.4880544842790369 0 0 0
397 1 5.094621525127452 15.919079575319373 1.5068095512375232 0 0 0
378 2 8.674397460006542 10.554784876139838 3.266636414380318 0 0 0
388 1 6.932228587740131 14.088442811807154 1.4836036624531077 0 0 0
391 2 8.673674624075304 12.303418632738959 1.5199892899815515 0 0 0
394 2 -0.2450439943874074 15.940335380300864 3.367263484382912 0 0 0
380 5 -0.2618588505537864 14.175993278116225 1.5780480014061702 0 0 0
396 5 3.363414311813738 15.851993230161067 3.2800053425176197 0 0 0
395 3 1.549864303099709 15.933829017440733 1.5569207332303598 0 0 0
384 1 3.286705749125216 14.115096269704715 1.4967075247989123 0 0 0
386 1 1.5370439383319658 14.143932365041634 3.3322429744155997 0 0 0
390 4 5.14164947063597 14.097053141504025 3.2879417476651733 0 0 0
398 4 6.909915738237447 15.881797738254521 3.302634789703203 0 0 0
356 5 3.228097425253776 14.086505388421063 -2.024308229317704 0 0 0
1037 3 10.494930715657754 14.144164892786867 -1.9353098964702644 0 0 0
1051 2 10.495805272716293 15.920197598240383 -0.22867347874088126 0 0 0
377 4 5.063959612931285 10.542602118079518 3.3284529762708117 0 0 0
379 5 -2.0424189457083735 12.364027670853188 1.5462019216101957 1 0 0
1058 2 10.460788831928083 10.554134340415915 1.5132770509276732 0 0 0
1079 2 10.487745501560479 15.90384287102979 3.3179873946011176 0 0 0
1065 5 10.465730826573814 14.089898204778383 1.4940786376473498 0 0 0
393 4 -2.0663575383335484 15.93901337255904 1.518918884031883 1 0 0
1038 1 10.485868504702562 12.307171991209795 -0.2526991436032568 0 0 0
346 5 3.2809572867613954 10.533679244203194 -2.0043010017713385 0 0 1
409 1 -0.27503144803684587 12.332257911171693 6.942234380340861 0 0 0
407 5 -2.055467602644014 12.350623995773837 5.152230164297503 0 0 0
400 2 -0.23485071314151487 10.516518847261594 5.175277650150869 0 0 0
411 5 1.5183937437006727 12.40164283325782 5.190314268721619 0 0 0
413 4 3.3124616558037605 12.323831774759213 6.954026633993639 0 0 0
1086 3 10.485949603227136 10.533002322064055 5.054733355049469 0 0 0
402 1 3.2820009161314445 10.525215883166922 5.124901945093568 0 0 0
415 2 5.1014016692991015 12.314582031654318 5.106956516350377 0 0 0
417 4 6.882469288701566 12.300952914951703 6.8993731369618185 0 0 0
419 4 8.705212555314853 12.329286154196403 5.099322621361095 0 0 0
410 3 -2.041755237418755 14.20452192878966 6.9718839697063295 0 0 0
441 1 8.706359791649762 15.865550230911781 8.722585471843887 0 0 0
408 3 -0.2939244989933184 14.181428909099568 5.118165859775381 0 0 0
422 2 -0.25491081740080573 15.899664820212264 6.929232371440745 0 0 0
414 1 1.5036315166862473 14.129810984720985 6.965153509770537 0 0 0
423 3 1.527632377417592 15.867981237633474 5.133710561399398 0 0 0
412 4 3.3585497818983057 14.130544664005038 5.161510000546918 0 0 0
424 2 3.3233803415626184 15.874945372166318 6.944582756240316 0 0 0
426 3 6.893658426027845 15.879610346986567 6.949463935049629 0 0 0
418 5 5.118917236174068 14.076614286438035 6.975993078842534 0 0 0
425 2 5.1293647236288145 15.904316292421571 5.143099800224612 0 0 0
416 1 6.837437242558292 14.096995102003214 5.139795343472158 0 0 0
427 3 8.748053604717919 15.900067938454553 5.083799756347913 0 0 0
420 4 8.71416332718454 14.127220967999365 6.871625581124254 0 0 0
451 3 5.109562215407315 14.034400271274963 10.443943474737576 0 0 0
428 2 -0.25590227930950094 10.535978671523747 8.72455689315727 0 0 0
431 3 -2.0390675014581405 12.335730344857147 8.747394641060698 0 0 0
401 5 -2.018889749311214 10.51566448212595 6.952993558486222 0 0 0
448 4 3.30249128685175 12.31442460009089 10.494347825928905 0 0 0
433 2 1.4672033776218838 12.348748832392301 8.704678051537144 0 0 0
429 4 3.2909039728520773 10.501246002651872 8.722661341704459 0 0 0
435 1 5.145788406385637 12.309907814433581 8.743750697402234 0 0 0
450 5 6.960858529749188 12.307204251720629 10.47948173882277 0 0 0
404 5 6.878276571765243 10.520480612460977 5.0621938008806655 0 0 0