LAMMPS data file via write_data, version 2 Aug 2023, timestep = 8292, units = metal

1372 atoms
5 atom types

-2.09005465313744 23.09005465313551 xlo xhi
-2.09005465313744 23.09005465313551 ylo yhi
-2.09005465313744 23.09005465313551 zlo zhi

Masses

1 58.933
2 58.69
3 51.96
4 55.847
5 54.94

Atoms # atomic

35 1 3.299475604651932 -2.0855748381981414 3.2996293205408147 0 1 0
3 5 -0.2528163660772797 -2.0203126806858247 -0.2428316345820577 0 0 0
8 2 1.5446163617537567 -0.2932475270711025 -0.3267763053865897 0 0 0
32 1 -2.0858534979891394 -0.2542269872302922 3.32518320333617 0 0 0
37 5 5.120809857450983 -2.0776185081538903 1.5154499533635608 0 0 0
12 1 5.119200676012826 -0.29724469373344176 -0.28672513383461096 0 0 0
10 4 6.889457719507415 -0.28010390386538886 -2.052145333472093 0 0 0
715 4 10.496683320693718 -0.2771063594667333 1.4918962916760532 0 0 0
14 1 8.69592446258979 -0.28160300326610554 -0.2837422081056958 0 0 0
729 3 10.460726364770288 3.3256399261695893 1.4742791977341225 0 0 0
13 5 8.694933254422995 -2.0521234500140095 -2.026038124798021 0 0 0
17 3 -0.35038769210142107 1.4691546511738898 -0.431918334815062 0 0 0
19 3 1.5438549070731902 1.4916024639044425 -2.075835647703826 0 0 0
22 4 1.489125758707547 3.3220491839789337 -0.347112654776074 0 0 0
21 1 3.3205091989371938 1.5220690053000205 -0.31044572752150534 0 0 0
33 1 1.5375598763493608 -2.063056336601583 1.5040253924076104 0 0 0
25 2 6.921807256931608 1.5102440955646506 -0.30568504810773567 0 0 0
26 2 5.109737586980095 3.3064559454197333 -0.2955604701914113 0 0 0
23 1 5.075641714473 1.5279796812827515 -2.023636587691249 0 0 0
702 5 10.455064286787561 1.499703963872617 -0.31791589982802637 0 0 0
11 1 6.900945372642484 -2.077843375646426 -0.2440321923707858 0 0 0
28 1 8.700318687535852 3.29582170464614 -0.3276413555957561 0 0 0
30 3 -0.2750902662974476 -0.2174692294388537 1.5163160683840333 0 0 0
31 3 -0.36887689001524765 -2.03750158665024 3.26446822386442 0 0 0
6 5 3.402043997640277 -0.29191004684642186 -2.0559224477973874 0 0 0
36 5 1.5460182200031458 -0.265885557228033 3.2743276660289777 0 0 0
34 4 3.311337476872922 -0.2910884874246858 1.4712359772376602 0 0 0
56 3 8.621305337828115 3.2921807561589747 3.240187197844591 0 0 0
40 4 5.117603497426586 -0.27750437589274973 3.285540044603305 0 0 0
38 1 6.914146336593974 -0.2835449925117942 1.4690229655089997 0 0 0
716 1 10.48938366376341 -2.0744831751083765 3.2879388523074065 0 0 0
55 1 8.673512439327844 1.5116463731697825 1.478001940501336 0 0 0
42 5 8.649154598594622 -0.2957368239012341 3.227862513868339 0 0 0
44 2 -0.33749534395881653 3.2784579734114145 1.472352782377755 0 0 0
45 1 -0.2934270570342165 1.505133172247862 3.25647567797472 0 0 0
46 3 -2.0340170684418433 3.233248322885932 3.3360310696283717 0 0 0
48 2 3.322139190730188 3.3224724593978077 1.45228364443325 0 0 0
50 3 1.4448417648322462 3.2691795511339476 3.223588203144323 0 0 0
49 3 3.3232284049487197 1.5691607477267806 3.263943844151266 0 0 0
47 5 1.5130137955521812 1.5517999008250236 1.3881685723021226 0 0 0
51 4 5.123028279619095 1.509657689009995 1.4587008282616913 0 0 0
53 2 6.905119004777142 1.5132049276595565 3.2668560473005703 0 0 0
54 5 5.151720460864224 3.292813947444518 3.2611392529211107 0 0 0
52 2 6.926386107665211 3.298287378709396 1.4518296450699681 0 0 0
701 1 10.498393353620607 3.310348025444335 -2.073217998547733 0 0 1
27 1 8.733286723394196 1.4677320631541726 -2.052151933412169 0 0 1
24 4 6.8901833571765145 3.2745352671568146 -2.0876637797334254 0 0 1
58 3 -0.38642919600547854 -0.19837006886580816 5.060190487183182 0 0 0
59 3 -0.2991979005630911 -2.042844748604456 6.870621235088667 0 0 0
60 2 -2.0759131507503286 -0.2899720846062226 6.90752357329444 0 0 0
64 5 1.637471502746578 -0.2323325389210517 6.952386575766504 0 0 0
62 2 3.323020088754756 -0.26777862019744786 5.071588602271306 0 0 0
63 1 3.3129212443429488 -2.047012208158109 6.868531308891724 0 0 0
61 3 1.5822233242765278 -2.043433358858558 5.093805971458888 0 0 0
67 3 6.964019981153017 -2.0713839693947356 6.864847530833506 0 0 0
68 3 4.96873883978692 -0.2856494419072054 6.92080755798287 0 0 0
66 5 6.911877938798081 -0.2698620244536848 5.081181661013003 0 0 0
85 1 -2.0638282564242196 -2.058973669305161 8.69412337588787 1 0 0
70 3 8.692627851793622 -0.13339784812961103 6.911173917880063 0 0 0
743 3 10.465883915302042 -0.2829493668719927 5.065449812219229 0 0 0
69 2 8.692678445432737 -2.0789488994788954 5.043707423068499 0 0 0
72 5 -0.2187125683220695 3.232359774615996 5.124013094291337 0 0 0
73 3 -0.3692617324874631 1.4918093988653889 6.970042904217609 0 0 0
97 3 6.892839342035476 3.249697731328036 8.658481484195422 0 0 0
75 3 1.5623371994665005 1.4564557127615583 5.117847218193202 0 0 0
78 3 1.5222745777691027 3.3291480819856023 7.028583658967615 0 0 0
76 3 3.2237221411876877 3.3318459502369677 5.156527355006486 0 0 0
77 1 3.2860095592214877 1.5601023269844396 6.910301278901923 0 0 0
81 1 6.854800684931361 1.5132070527028487 6.8977010841440505 0 0 0
79 3 5.071345991122205 1.5231685647318707 5.158628065534134 0 0 0
82 1 5.075673204644894 3.312314256809505 6.900503218609907 0 0 0
80 5 6.836924026656788 3.3116246812852808 5.157054370886249 0 0 0
84 5 8.714832876993864 3.2181661905399572 6.892754985433945 0 0 0
83 3 8.711544478118643 1.5690630281006681 5.068379886760578 0 0 0
96 4 5.042228889199778 1.5380348026631674 8.716762828165875 0 0 0
86 5 -0.29736895326378465 -0.2849009530230286 8.716090090111404 0 0 0
88 1 3.3068547576193703 -0.2741391610445785 8.767744521824518 0 0 0
87 3 1.6645633274733602 -2.0609583505525024 8.734763435929636 0 0 0
90 5 6.88001847279151 -0.21282766531355019 8.711097981682908 0 0 0
89 4 5.0843396085254415 -2.0655530481308113 8.708115958679896 0 0 0
771 5 10.494427587993995 -0.2181554735356028 8.73914226949801 0 0 0
778 5 10.485195593424775 3.2478503899445212 8.758366178465616 0 0 0
98 2 8.694022212845141 1.5177943494792805 8.75671025936082 0 0 0
93 5 -0.3444025851228907 3.2806972212390395 8.749287988795416 0 0 0
95 2 3.2877129259049322 3.3166919685200487 8.729190969878383 0 0 0
94 1 1.5484951341767001 1.5102322451564514 8.702240479917023 0 0 0
744 5 10.385546486538969 -2.074530456029202 6.893332141889164 0 0 0
71 1 -2.088031329675463 1.5382813034404845 5.113234352918368 1 0 0
57 1 -2.0617176005971793 -2.078413300384028 5.112271577942394 0 1 0
114 1 -0.26416037278837323 -0.31280875095408606 12.366171956297014 0 0 0
148 3 -2.0754908428714742 1.5508711206507726 15.902542568165453 1 0 0
100 4 -2.085408962369669 -0.30691032507874627 10.544066190570941 0 0 0
118 4 3.345979401554504 -0.29459206240431773 12.306190013682173 0 0 0
799 4 10.4510013158727 -0.3231210695013268 12.333720356853073 0 0 0
102 4 1.5409337583789715 -0.24934321408940413 10.561004657994758 0 0 0
122 4 6.889458345508283 -0.2883606437072341 12.340940301023409 0 0 0
104 2 5.079561504231944 -0.2793417834806734 10.509975359886655 0 0 0
105 2 8.663623922152 -0.29319598342765657 10.5239794195719 0 0 0
145 1 5.093532211432976 -2.074357785075558 15.917736705377434 0 0 0
128 1 -0.2730673231657516 3.317904181917715 12.359886926208324 0 0 0
107 4 -2.0556831518594367 3.3069234681749746 10.540460243896893 0 0 0
106 4 -0.29324078398527936 1.48188001734504 10.547499430350664 0 0 0
127 3 -2.074042665444752 1.5216173908986677 12.36438510562587 0 0 0
109 4 1.4974653821877266 3.255388084229572 10.530200506434953 0 0 0
131 2 1.543010787761073 1.5258474511046267 12.337251406205835 0 0 0
132 1 3.3158685313334426 3.3243743685247145 12.32269432482722 0 0 0
136 1 6.886099764784763 3.321568793338526 12.321808346091364 0 0 0
135 5 5.090063284908702 1.5414861821457735 12.316641855148898 0 0 0
110 3 6.939758839972176 1.5302533294409288 10.553796452873247 0 0 0
111 3 5.043274974454329 3.349410755302365 10.51931151911287 0 0 0
139 4 8.666359300814326 1.5283890780908966 12.364614880855413 0 0 0
112 2 8.652551821948483 3.3226625975781694 10.533789111815278 0 0 0
813 3 10.460641709781122 3.3235804041014374 12.314034570280022 0 0 0
792 4 10.45956562406937 1.5045748265223908 10.579570266166243 0 0 0
142 3 -0.29667189589282783 -0.39123873017596966 16.02808550521206 0 0 0
116 5 -2.0625761252834094 -0.33833649413069095 14.120784754030987 0 0 0
144 2 3.3354448232028613 -0.2904452548604318 15.938024175502495 0 0 0
120 3 1.4821009352310217 -0.3411731036259319 14.066400241224345 0 0 0
119 5 3.3432961054315466 -2.072488948968655 14.128132900770028 0 0 0
146 1 6.844802430225221 -0.3389847110002012 15.921303646517833 0 0 0
124 2 5.10662446351599 -0.2944264366028766 14.158516258855235 0 0 0
108 1 3.305243940361625 1.5359249031286568 10.540527983456851 0 0 0
126 4 8.664419553354204 -0.3039936556555792 14.150889018811615 0 0 0
129 5 -0.2276020392690811 1.5275174845043877 14.104300637688302 0 0 0
149 5 -0.28807369502306174 3.382063111880837 15.951496725088486 0 0 0
134 3 1.5145918471022892 3.3667403657523702 14.103184846477413 0 0 0
151 2 3.3019287507722273 3.32111398137923 15.941220337325703 0 0 0
133 3 3.28468585702906 1.5250575197836866 14.118139220497605 0 0 0
150 3 1.588721115889509 1.508980562742222 15.965244370041821 0 0 0
138 2 5.089279610817771 3.3079652845796357 14.139231732866117 0 0 0
137 4 6.879243612455176 1.5422560551023923 14.149668593620136 0 0 0
152 5 5.117349634385243 1.5120592137508377 15.94597338724733 0 0 0
153 1 6.8755678240624905 3.358184395808698 15.955905195641867 0 0 0
154 4 8.651457246424986 1.5313793947751093 15.916349221296674 0 0 0
834 1 10.479229885760406 3.2943205435192504 15.927851358172065 0 0 0
814 4 10.47608179102681 1.5403449494983579 14.119443148768587 0 0 0
140 1 8.670116414798057 3.3398524394564104 14.130391985479951 0 0 0
103 3 6.8997075151676555 -2.0630668520053 10.52961524827404 0 0 0
99 3 -0.22158006328296764 -2.058746488219427 10.539180551758887 0 1 0
170 5 -0.2920673185584553 -0.2863905028553242 19.47134273534667 0 0 0
183 2 -2.080922256978226 1.544139427497584 19.526092962119215 0 0 0
158 3 1.5820125096012916 -0.2650393818162739 17.778936393794634 0 0 0
174 5 3.357418882988518 -0.29542695442768435 19.574713304628673 0 0 0
841 4 10.468330901591473 -2.062697072310442 17.72282999559617 0 1 0
157 5 3.3499499331148694 -2.0896828189673835 17.734987587070158 0 0 0
160 2 5.10720089807651 -0.29567581411538546 17.726111449546387 0 0 0
178 1 6.901624229491428 -0.30780321264330096 19.497332459271462 0 0 0
172 4 -2.089614628651791 -0.2830860923064851 21.305224159074587 1 0 0
848 5 10.496103974309577 1.4933997781972395 17.69678266882656 0 0 0
161 5 8.646817425094197 -0.31424230802481196 17.697474655525085 0 0 0
855 1 10.49371756838977 -0.28208542441891654 19.507305227811553 0 0 0
869 3 10.493635584155 3.337624462631707 19.49224674699105 0 0 0
162 3 -0.3554770708823948 1.5482171857111697 17.736973890244524 0 0 0
184 4 -0.271173829874569 3.33247566316395 19.50316346047985 0 0 0
163 1 -2.085881219901543 3.3308656423112675 17.70065813516725 0 0 0
165 5 1.5824211418281864 3.3459660273429748 17.75880797553729 0 0 0
187 2 1.5399957503171635 1.522046783411272 19.526289279433183 0 0 0
164 2 3.3377844103893426 1.4940258422389305 17.75322686366744 0 0 0
188 1 3.2777494537823486 3.299939314683574 19.534353651579348 0 0 0
192 4 6.9084362971481985 3.3370206277628522 19.513373868300743 0 0 0
167 3 4.995801506014024 3.303855426331012 17.80193353167345 0 0 0
191 1 5.0841470334419485 1.50144839890705 19.511460290143237 0 0 0
166 4 6.883967521648772 1.5226592702910628 17.734131353329413 0 0 0
195 3 8.689472005380706 1.5145487100219142 19.497500390879587 0 0 0
168 1 8.707770130792806 3.3153035859469777 17.707472300991828 0 0 0
196 4 8.668663098285045 3.3176268366003225 21.34480976881106 0 0 0
193 4 6.898476346615797 1.4957265270810676 21.29260376508612 0 0 0
175 1 3.3262125138369596 -2.088599844651593 21.3327168678405 0 0 0
176 4 1.5140885692470722 -0.302569859419184 21.29552548153325 0 0 0
181 2 8.683707695272542 -2.0656368248945762 19.53497500499572 0 0 0
179 2 6.880047049150816 -2.0714271487747236 21.30211684080435 0 0 0
180 4 5.127878250180014 -0.28417830270067657 21.316165171404535 0 0 0
182 5 8.71122768685634 -0.275732175273239 21.295909273365975 0 0 0
194 5 5.094404039311786 3.2759121564666995 21.261471948713673 0 0 0
16 2 -0.33118081674671634 3.3113052349100505 23.052393619435623 0 0 0
185 5 -0.29127437880337664 1.524841020720298 21.320448109219384 0 0 0
20 5 3.345328560962494 3.281784978229082 23.071864698642074 0 0 0
190 1 1.5108029530829774 3.2895298525006185 21.303834762040502 0 0 0
189 1 3.3208827685697173 1.5223907122251532 21.305527665735635 0 0 0
2 2 -0.29830272616689213 -0.31990757584647667 23.07261690266692 0 0 -1
199 3 -0.40581545561966065 5.045175612967355 -0.3167475379188391 0 0 0
221 1 -2.043421043977788 6.91793938677159 3.2943886321911724 0 0 0
204 2 1.5069770701795149 6.891646397578436 -0.29956642417560064 0 0 0
203 3 3.3272700711037753 5.100749482606157 -0.3484213993388578 0 0 0
918 3 10.42313061049318 8.685915427113889 3.283294112150483 0 0 0
208 3 5.109277385696731 6.937057822225205 -0.37564504348609934 0 0 0
207 5 6.93147436623551 5.101076073458562 -0.35743847682580265 0 0 0
378 2 8.682013639644632 10.485632732671187 3.341827504034852 0 0 0
209 1 8.675389804610647 5.106730524274422 -2.0572012777529842 0 0 0
210 1 8.667192159126415 6.937483665723274 -0.3144539269239663 0 0 0
212 3 -0.2429121191009281 8.675355831778523 -0.3066861746180784 0 0 0
214 5 3.2920241080998367 8.735159776263938 -0.33012212254754664 0 0 0
216 5 6.903446287964019 8.713671584377535 -0.33578348740678465 0 0 0
232 2 -2.058560428382988 8.683120903543747 1.504353819705161 0 0 0
219 5 -0.3123627009979533 6.887286603134117 1.5106251313546943 0 0 0
220 2 -0.2721227647002018 5.080215089765898 3.2739914955192897 0 0 0
224 5 3.302503166240477 5.095064359225373 3.288702014054058 0 0 0
223 5 3.316288687134325 6.905916302230787 1.49941155242051 0 0 0
225 2 1.5127091008479565 6.866521700470046 3.292686149697309 0 0 0
222 3 1.4664857224650503 5.07094880367634 1.4655205721529303 0 0 0
229 2 5.1030653406777295 6.913348752116622 3.2883475576537395 0 0 0
228 2 6.889074979985487 5.111632910175991 3.2860193803044364 0 0 0
226 5 5.137882927109858 5.091969453476689 1.5011096339762435 0 0 0
227 4 6.89375936125631 6.954998031907411 1.5300992157184576 0 0 0
231 1 8.723441213714052 6.913113025266762 3.288413470655875 0 0 0
230 5 8.662985424898766 5.148091143453382 1.5000620277542547 0 0 0
238 2 8.70243683520622 8.700425452366353 1.5164981320952344 0 0 0
233 5 -0.27920093903681115 8.682294188629374 3.3086079638181123 0 0 0
373 3 -2.0756291203726067 10.494468754246132 3.2930457667708586 0 0 0
235 5 3.311019795876623 8.705795978910137 3.3047442658046733 0 0 0
234 3 1.5440467549952042 8.708283522291786 1.5358017474870673 0 0 0
904 5 10.480195601972293 6.897480509364022 1.4327782339761481 0 0 0
236 2 5.091471455611697 8.712962643930698 1.5032186394516012 0 0 0
237 1 6.918966059723243 8.720730401126758 3.3036945181400843 0 0 0
376 4 6.901845087848118 10.483933118102826 1.5067933569696936 0 0 0
883 4 10.495318530248293 6.918370657728131 -2.043943503028072 0 0 0
884 4 10.49313090664579 5.1060861561922986 -0.3272040017913875 0 0 0
897 1 10.494089131667634 8.711161037721562 -0.26585545207081085 0 0 0
1058 5 10.469128172086435 10.499230769555854 1.549560724696689 0 0 0
215 2 5.095940562939212 8.720692511756383 -2.0886938535667063 0 0 1
206 1 6.898012152451761 6.902751373015794 -2.064019991315032 0 0 1
202 1 3.291392108995417 6.92732643840402 -2.0725047668785557 0 0 1
205 1 5.0953228438396865 5.111808345920739 -2.083359716261956 0 0 1
217 1 8.708261215855048 8.733622793761503 -2.034394933786242 0 0 1
240 4 -0.32554372537452186 6.93110793495066 5.111316465675329 0 0 0
241 3 -0.3819484922068677 5.152810150458233 6.980620191889264 0 0 0
242 2 -2.089742409208833 6.931486438425237 6.948132546303749 0 0 0
239 5 -2.0483689651868504 5.097580183521821 5.064744110964574 0 0 0
243 3 1.4758505744650627 5.1865187455824815 5.078231042197958 0 0 0
246 5 1.5139998758341646 6.888132509191813 6.950366459059582 0 0 0
244 2 3.3022958121877024 6.896808359103006 5.076480107501405 0 0 0
245 4 3.317305007915696 5.148425368635233 6.930781252007063 0 0 0
247 3 5.10904421782943 5.156253669911684 5.12720364137571 0 0 0
250 4 5.1293096853459295 6.928366575239078 6.9299124304539585 0 0 0
248 4 6.907164346290858 6.906801805647477 5.05007668422521 0 0 0
249 1 6.927847496296565 5.087835025449227 6.885219271496525 0 0 0
251 3 8.645712596416217 5.082757783139324 5.013521794458728 0 0 0
252 3 8.626769738837007 6.911770367443288 6.893382587098874 0 0 0
925 5 10.467082425255814 6.834242398410944 5.096038346407192 0 0 0
254 5 -0.27389772234397747 8.739373390566506 6.924664825674198 0 0 0
428 2 -0.2603058883069818 10.499702334145594 8.742338104839526 0 0 0
269 1 5.126060417052341 8.713289700427284 8.711596298354461 0 0 0
255 4 1.5246952181628084 8.693096557428367 5.10175386349086 0 0 0
256 4 3.294817942676446 8.71034646539099 6.932720859524025 0 0 0
1114 5 10.487073394019228 10.432801807368197 8.622164368120016 0 0 0
402 4 3.2912910701961366 10.49993051320646 5.104257203268064 0 0 0
257 4 5.10778305287085 8.669838433238906 5.097136631514746 0 0 0
258 2 6.9068089161718405 8.695474943079976 6.909814529839953 0 0 0
404 2 6.918283204318386 10.487757809822988 5.098882794532676 0 0 0
259 1 8.67807815663444 8.681311691361822 5.096947925485813 0 0 0
406 4 8.635672669369972 10.46497768453002 6.88571810134213 0 0 0
939 2 10.488393757421184 8.600345867606375 6.903447562941672 0 0 0
261 2 -0.30669568395754065 6.933251971592707 8.743727016018768 0 0 0
260 2 -2.0811511679912376 5.133386377833407 8.734542309371882 0 0 0
429 2 3.2915636196360505 10.467247057870857 8.720246104620621 0 0 0
263 5 3.3257980041440534 6.948234963190786 8.802569556380593 0 0 0
262 3 1.5232616084196275 5.127913329908498 8.820451545097832 0 0 0
405 4 5.141419573198383 10.488119220473836 6.875374626341781 0 0 0
264 4 5.127039149486969 5.089172236271583 8.692710179213718 0 0 0
265 1 6.908378523732542 6.8952232524798855 8.683254950040173 0 0 0
276 4 5.162745425937958 6.905892212788984 10.496353857306056 0 0 0
268 2 1.49412650497183 8.71849150564601 8.745376081413328 0 0 0
266 5 8.623942257569967 5.098069356965196 8.705151258721042 0 0 0
270 5 8.693220489678058 8.631051793296912 8.702952045505626 0 0 0
1086 3 10.422986022652708 10.41547023403235 5.161913145406159 0 0 0
282 1 -0.3142971338558654 6.936188207079541 12.323977826209918 0 0 0
271 2 -0.29966989867280336 5.12509765843229 10.531557886098897 0 0 0
285 3 1.4844241570009795 5.077776837578073 12.23996375966408 0 0 0
286 3 3.347944162226833 6.95895774661603 12.219332132926123 0 0 0
273 2 3.2932037357425465 5.086213313819291 10.530230875691108 0 0 0
289 5 5.122330808830871 5.095174243756568 12.304865820817454 0 0 0
290 1 6.881418302242133 6.865350814494444 12.360917762101252 0 0 0
293 1 8.670005245420354 5.089943692864201 12.329706578403806 0 0 0
967 2 10.476437607118928 6.8724678458550486 12.350412908321431 0 0 0
956 3 10.439915182052541 5.134832578984136 10.53362988003438 0 0 0
280 3 6.882976246504159 8.654990038759117 10.559224458227073 0 0 0
274 3 1.4164641823320172 6.996490451320899 10.574062393056693 0 0 0
297 2 1.5145924561378543 8.7497149832509 12.308018303454618 0 0 0
309 2 -2.083801223925768 8.71037693082541 15.890498343243689 1 0 0
279 2 3.3193313135693 8.750670475461067 10.517715435908354 0 0 0
312 4 8.720013357136539 8.68919555866359 15.892829757049778 0 0 0
299 2 5.096891557388814 8.694419187369059 12.321830531968793 0 0 0
486 2 6.92028320586537 10.470225634038844 15.92912975232389 0 0 0
301 3 8.753611073361059 8.618977613120999 12.359237324486312 0 0 0
283 5 -0.3268345819414751 5.140881743903027 14.089037841139545 0 0 0
303 3 -0.2943015831746977 6.887684052250827 15.94384333308162 0 0 0
981 1 10.497924499913632 8.69546151918458 14.098048852263062 0 0 0
288 5 1.5005327542687725 6.916503135425744 14.043127310829853 0 0 0
304 2 1.5371648463329677 5.1275998110186345 15.922469065734912 0 0 0
287 5 3.329589493449908 5.090246851154402 14.11622724825837 0 0 0
305 3 3.292152721057908 6.954775620850474 15.917468436102116 0 0 0
306 5 5.095371588515601 5.093884601130868 15.948766969921243 0 0 0
291 5 6.928799936869996 5.056371544342272 14.102110699562287 0 0 0
307 3 6.912236298566899 6.922262855828155 15.890939673984676 0 0 0
292 2 5.092805580016794 6.912897268165483 14.109598642906864 0 0 0
308 4 8.724520839326278 5.118624098887315 15.940032498256897 0 0 0
294 2 8.69807648983181 6.890769709552489 14.078045715453722 0 0 0
460 3 6.957419553172462 10.497184560994599 12.323653899262922 0 0 0
968 4 10.490680689359277 5.084477564731223 14.11519361141307 0 0 0
1170 2 10.477306160169174 10.490971513708509 15.875187539958631 0 0 0
296 4 -0.29185742082622146 8.693210782287762 14.127522715177284 0 0 0
462 2 8.70446289518439 10.49748213429067 14.129403856707427 0 0 0
298 5 3.3053136778863377 8.724411714245722 14.10264574158667 0 0 0
485 3 3.280218870972906 10.448713256761126 15.931315974687983 0 0 0
310 2 1.5150913430666983 8.71543189973873 15.89802434596079 0 0 0
311 1 5.114982544666012 8.69559518472719 15.901344190304624 0 0 0
300 5 6.891358021720232 8.668881126124829 14.079546024425232 0 0 0
461 3 5.160757258966696 10.49098011262629 14.130760986889891 0 0 0
456 5 -0.2933785241116432 10.499776635226462 12.394159521803584 0 0 0
484 1 -0.2868839623371632 10.476361166576408 15.865431672316296 0 0 0
963 4 10.478921827948191 8.642774431576541 10.500979108425055 0 0 0
272 5 -2.0482064148516326 6.943856831010583 10.562989584207031 0 0 0
275 1 6.8996582648765825 5.07442913176028 10.535163235895881 0 0 0
277 4 8.648210509976439 6.870303461155861 10.529833230744094 0 0 0
278 2 -0.29223749040730984 8.745243609183577 10.538517631434283 0 0 0
313 1 -0.2601022589531297 5.120003256100113 17.696300103854224 0 0 0
324 1 -0.29731053731453455 6.887353492062203 19.50694695279729 0 0 0
314 1 -2.06785936716387 6.901536828012526 17.6769946721724 0 0 0
323 4 -2.071782121622508 5.096199343997307 19.48443589844948 0 0 0
316 4 1.5159124234826764 6.917458088925677 17.72215517355666 0 0 0
327 1 1.5207750798258917 5.13018748850652 19.52583672389338 0 0 0
315 2 3.296618199872525 5.138450686642113 17.744121557363982 0 0 0
328 1 3.291566718753242 6.949598915403996 19.525223455562603 0 0 0
318 3 5.028043009523332 6.989102176991101 17.772200907327875 0 0 0
317 3 6.943177675349767 5.12880114957037 17.726397846331786 0 0 0
332 4 6.907903299919227 6.92769538811172 19.558411437441137 0 0 0
331 4 5.085126023502848 5.152081989363754 19.527015662276398 0 0 0
319 2 8.735476904307433 6.901891417259609 17.754389646093646 0 0 0
335 4 8.697856080904561 5.119486897690901 19.53151853370513 0 0 0
320 4 -0.30990801159228376 8.719899682918768 17.695233244601596 0 0 0
337 2 -2.07381936806268 8.698969730498652 19.478084418941208 0 0 0
1023 5 10.425428368517471 8.691461765756966 21.295599040822246 0 0 0
339 5 1.4865892358385417 8.683329618350445 19.513169754297184 0 0 0
321 1 3.308038057602887 8.70872122065956 17.71610210603464 0 0 0
515 2 1.522157697547592 10.48766553819381 21.316064254709374 0 0 0
516 3 6.937669976572828 10.46473215990631 19.551086168748636 0 0 0
341 1 5.078410593942138 8.712062536801644 19.53268533778872 0 0 0
322 5 6.950318544015657 8.664562107320943 17.734448163855554 0 0 0
500 3 5.091949302605925 10.397332696342257 17.709313934265946 0 0 0
1005 4 10.498841299418734 8.70835783795166 17.701184682611583 0 0 0
343 1 8.745071300246046 8.741672446693656 19.480580901149906 0 0 0
325 2 -0.2679274782773886 5.0991405576412125 21.27957349191396 0 0 0
326 2 -2.0629769419839667 6.870806609076625 21.27823605247632 0 0 0
498 2 -2.056757245964004 10.482605684767144 17.694142129118152 0 0 0
329 4 3.2998776042509745 5.1293522621549235 21.31037691091026 0 0 0
330 2 1.4944708584769395 6.906991552209255 21.286900929982483 0 0 0
346 1 3.3319369504017344 10.483004410946771 23.079283099802794 0 0 0
512 1 -0.3180511944987838 10.492087614398468 19.552734754845204 0 0 0
333 1 6.847909064335181 5.123793997426843 21.354501181320806 0 0 0
334 1 5.088946665513342 6.914229098027034 21.348420771138287 0 0 0
336 4 8.687686046452058 6.90112250229266 21.33155015294351 0 0 0
499 4 1.4896075264716757 10.47538845152125 17.72455899086953 0 0 0
338 5 -0.32359953702000643 8.702713037644278 21.27967875367072 0 0 0
340 5 3.3399637945871707 8.66942256516891 21.330441879489577 0 0 0
213 2 1.5058866768844867 8.698180775562163 23.06276035789431 0 0 0
342 4 6.900498986032755 8.699314980115853 21.33478840159762 0 0 0
198 5 -0.2785941296220054 6.8780090709123165 23.081404984308747 0 0 0
201 4 1.4907859851632626 5.105880956749109 23.077582666131658 0 0 0
1009 1 10.487758403539402 6.915022174692032 19.52310226980002 0 0 0
998 1 10.477912904437078 5.0918825461032196 17.741566876749836 0 0 0
1010 5 10.499686886360871 5.088078014510483 21.387088284159987 0 0 0
353 2 -0.2494365915161955 12.318842781681738 -0.2905993879888051 0 0 0
350 5 8.730618653671387 10.518807593870923 -0.28484348252571373 0 0 0
351 3 -2.0182765462012497 12.331240574435895 -2.0540724099153436 0 0 0
357 2 3.3094085951129073 12.284243000354541 -0.3126822158063244 0 0 0
347 4 1.521541612403438 10.516483719345684 -0.3044301177305756 0 0 0
361 2 6.920729309602174 12.314054906936653 -0.2459849490021298 0 0 0
349 1 5.0806433221173055 10.500718197740728 -0.2688126752420257 0 0 0
1038 1 10.477830645399722 12.30157854122017 -0.2699262741377185 0 0 0
366 4 -0.20551068541114323 15.899046856393186 -0.2810846668385474 0 0 0
354 3 -1.9662918967831169 14.09945246055189 -0.16882920770193446 0 0 0
358 2 1.5367059116097237 14.07363251845012 -0.3155844774318526 0 0 0
368 4 3.2902080723241274 15.90183175385475 -0.27938515881070086 0 0 0
356 1 3.298023918478862 14.1242194060641 -2.0774437037027194 0 0 0
362 4 5.124944872431865 14.110335632917788 -0.286793927433422 0 0 0
370 2 6.929061153461388 15.896267484655123 -0.25313810955820804 0 0 0
369 5 5.144036169637325 15.890711962838816 -2.0702070527112952 0 0 0
360 1 6.917834624168079 14.097257710365856 -2.070328903177859 0 0 0
364 3 8.657046148259473 14.086126475878611 -0.2059920245051345 0 0 0
371 3 8.62205977904745 15.839004991323677 -2.0512295843526194 0 0 0
1037 2 10.492402728666796 14.118653753659498 -2.0240264202107974 0 0 0
1051 2 10.483087497743918 15.89761595350049 -0.27664202126458787 0 0 0
372 3 -0.2568366780722087 10.556599292033527 1.5351537741147263 0 0 0
381 1 -0.2657756407897516 12.304520536016309 3.2857607923427783 0 0 0
379 2 -2.0104987993281815 12.313001220001295 1.5169497343063147 0 0 0
375 1 1.5315001700873099 10.522391854447974 3.2714389106904513 0 0 0
374 2 3.3300593847441404 10.52652768248546 1.5120334999990233 0 0 0
383 4 1.5696637918871739 12.329098728914461 1.5068444316934462 0 0 0
385 1 3.3309257316258574 12.280879252380746 3.327794985018033 0 0 0
389 4 6.913489430946042 12.297726776466881 3.3166437340689248 0 0 0
387 4 5.094046582669613 12.313774764377309 1.49754696601087 0 0 0
391 2 8.6845846873406 12.306450065486619 1.532809173054936 0 0 0
1065 5 10.484588251651031 14.08794794267162 1.523831838613307 0 0 0
393 1 -2.006283678655309 15.929849865919975 1.5058440613558064 0 0 0
394 1 -0.2670394106459283 15.912958581397195 3.2944997772812163 0 0 0
380 2 -0.2140515290151028 14.091361076150749 1.5180369448878492 0 0 0
382 5 -2.002922109162858 14.146466335585696 3.2779781649977298 0 0 0
396 1 3.3338091818390967 15.915499511808862 3.3222703423962257 0 0 0
384 4 3.3379637179159056 14.109167732337145 1.5456386632321535 0 0 0
395 4 1.5491784875891474 15.885808805202117 1.5367709904167846 0 0 0
386 2 1.5183563601696435 14.090150182822262 3.3044721212490917 0 0 0
390 1 5.125458680160378 14.103775478962621 3.3425369020784315 0 0 0
397 4 5.12541932556008 15.885748822139197 1.548456530674064 0 0 0
398 1 6.925792264027467 15.850410412719638 3.3695952415099724 0 0 0
388 2 6.912991117150173 14.112413238086999 1.5446311089487195 0 0 0
392 5 8.687088100897718 14.155248522673118 3.348747532742458 0 0 0
399 1 8.700622150162602 15.868019620997657 1.4946158990018787 0 0 0
1079 4 10.47956182701935 15.91612662665057 3.333557130382025 0 0 0
345 5 -2.040903302449358 10.522753443049437 -0.3056859100487063 1 0 0
1066 3 10.438049296643705 12.298784689321085 3.3927276397509134 0 0 0
377 4 5.118407567270559 10.500768059230378 3.3263735834767014 0 0 0
355 3 1.562495059118167 12.282652536985307 -2.0684271267482934 0 0 1
359 4 5.101062246603674 12.297928811963878 -2.062480430499164 0 0 1
348 4 6.879286157879437 10.533220720982445 -2.0725981098220245 0 0 1
363 5 8.679663441843184 12.369895343458362 -2.069498367934411 0 0 1
409 3 -0.2749117102133087 12.265386862332493 6.894587005075074 0 0 0
403 1 1.4922792573602837 10.50754221569657 6.945724040064986 0 0 0
411 5 1.5130548662978425 12.27608511612596 5.053131581515452 0 0 0
413 4 3.2948212960763135 12.257905125323303 6.899016016020226 0 0 0
415 2 5.1227083275598835 12.282989800833315 5.090464272454029 0 0 0
417 1 6.908720089806668 12.324457439913669 6.8681557049359885 0 0 0
431 3 -2.032811206596103 12.213013125807382 8.7344100655789 0 0 0
1094 3 10.484572882858009 12.350537154330496 6.813176428063757 0 0 0
419 1 8.691716979696588 12.31673998970663 5.123763419436866 0 0 0
408 4 -0.27961716530220593 14.080396946087019 5.080731792406 0 0 0
422 5 -0.28812051381964543 15.852544425474747 6.890277469377291 0 0 0
414 1 1.509754863351775 14.049962144427008 6.917480838110768 0 0 0
423 4 1.5141897005560243 15.878935044265216 5.1123349332051875 0 0 0
412 4 3.2948121244369917 14.088158537281561 5.0714042514395015 0 0 0
424 2 3.2915257625336607 15.908649114696752 6.8590256173694915 0 0 0
426 4 6.887762512462429 15.954161839187393 6.866754301766924 0 0 0
418 4 5.0493322831573755 14.07939002124727 6.848473105005326 0 0 0
425 2 5.083165584449178 15.934381414595608 5.078792867956372 0 0 0
416 5 6.8774840116072635 14.09971827992728 5.129016923024343 0 0 0
441 2 8.730281619549427 15.978636998289183 8.658539629486038 0 0 0
427 1 8.696311491328439 15.90614458668791 5.132054742679911 0 0 0
420 5 8.733080285528946 14.151266086745203 6.889673439248174 0 0 0