LAMMPS data file via write_data, version 2 Aug 2023, timestep = 8251, units = metal

1372 atoms
5 atom types

-2.0842303644726843 23.084230364472614 xlo xhi
-2.0842303644726843 23.084230364472614 ylo yhi
-2.0842303644726843 23.084230364472614 zlo zhi

Masses

1 58.933
2 58.69
3 51.96
4 55.847
5 54.94

Atoms # atomic

3 5 -0.2143496748557507 -2.058441362334321 -0.30108593295053027 0 0 0
8 2 1.5450778215656984 -0.26038423075889067 -0.28025041795588657 0 0 0
55 1 8.718481113263397 1.4974382064062726 1.5238590502515492 0 0 0
12 2 5.133175214031349 -0.27260429317845264 -0.2819523781883414 0 0 0
9 2 5.129801046273103 -2.0692594743499004 -2.035659237117459 0 0 0
14 4 8.689685396759213 -0.2889479398049681 -0.27365776781771983 0 0 0
17 4 -0.2607532788570327 1.512355617709389 -0.2895338617433093 0 0 0
22 3 1.5982753558564704 3.2499352849598355 -0.29327375449221393 0 0 0
21 1 3.3329061644082874 1.5297121973476506 -0.2734432536016837 0 0 0
25 2 6.8889091520485755 1.5049584119531634 -0.2744852363632805 0 0 0
26 1 5.080941998570878 3.30009800025278 -0.25338393616221033 0 0 0
51 2 5.0832896638224225 1.5235686319573811 1.4987664547814488 0 0 0
28 2 8.688238173371564 3.2698079938226208 -0.2769792749989946 0 0 0
702 3 10.498490750530603 1.5221301962604732 -0.2876363712060958 0 0 0
56 3 8.814234328357891 3.240010354183315 3.329028625481259 0 0 0
32 5 -2.030625362051247 -0.26192548204032384 3.3529532492726455 0 0 0
30 5 -0.21356092918514766 -0.2410990574311259 1.5330960432651963 0 0 0
33 1 1.5047780013495742 -2.0620866929741104 1.5279833307995545 0 0 0
4 4 -2.0675534998079073 -0.29466915831955176 -0.304919332487594 1 0 0
36 5 1.5304435652534127 -0.29513845735442173 3.324858324366553 0 0 0
34 4 3.334292381098782 -0.2964229392304609 1.480986236694424 0 0 0
38 4 6.876044085193338 -0.2682153286052027 1.5084542451411187 0 0 0
40 3 5.057411104951496 -0.35213847194883635 3.3013659506401556 0 0 0
54 5 5.091597919314332 3.3144947346839277 3.302935920317789 0 0 0
42 5 8.739344222458406 -0.26612967319362163 3.284067270400179 0 0 0
52 4 6.916390091233526 3.276082405401249 1.4877643054283636 0 0 0
46 4 -2.0650006054703494 3.339767111177497 3.364160795141003 0 0 0
44 3 -0.20668714622938952 3.2785655635953095 1.5570104246013878 0 0 0
45 2 -0.22200957462209664 1.5453372328161477 3.345511056538 0 0 0
49 3 3.2811339443090732 1.5651307323528625 3.2872193877364952 0 0 0
47 1 1.5473598133902853 1.5267463853131475 1.5344232227082664 0 0 0
48 2 3.3091512660730067 3.3131936456371394 1.5254760373607155 0 0 0
50 2 1.5445995990761672 3.318720818346821 3.331388303502911 0 0 0
53 5 6.90528586937187 1.5056736082362119 3.306436888120987 0 0 0
687 5 10.496984068000172 -0.26313972287687326 -2.073166077146036 0 0 0
31 1 -0.26023857879539664 -2.0754548351228195 3.329704235757066 0 1 0
6 4 3.336091193050274 -0.28018894133522804 -2.0366177253064848 0 0 1
10 2 6.884690610329396 -0.25103789821865646 -2.050417718399281 0 0 1
19 2 1.5758355762901526 1.5143921630645198 -2.0710449644938222 0 0 1
20 2 3.3617530780501723 3.297146276141656 -2.070798525159418 0 0 1
24 4 6.884970011954144 3.3000068676325474 -2.0325092711765365 0 0 1
27 1 8.689969521234605 1.5086578632136523 -2.0794451361555453 0 0 1
23 1 5.112710032852578 1.5287103220566869 -2.042985311603637 0 0 1
58 1 -0.24573110563892145 -0.25592981096260636 5.098606985493718 0 0 0
59 4 -0.25935044736726587 -2.0488127076801668 6.908646335533424 0 0 0
64 4 1.527227946473224 -0.24395925503784813 6.879466672041935 0 0 0
62 4 3.337298572847033 -0.2967918002563351 5.132533969444797 0 0 0
60 1 -2.074607896853699 -0.26383063526726797 6.916398391037855 1 0 0
85 4 -2.070698612139676 -2.0821113268380573 8.716227533814298 1 0 0
68 4 5.120204697025658 -0.29570160546379615 6.940611631300284 0 0 0
66 4 6.915006808323127 -0.29983949220487155 5.128401992341492 0 0 0
101 3 3.3445258603091603 -2.0814853506414543 10.475180899575472 0 1 0
70 1 8.737692886475724 -0.31361392417722117 6.946977910587268 0 0 0
98 3 8.728596039856248 1.4818976651960738 8.800245287963433 0 0 0
69 5 8.69335511673483 -2.075612973406926 5.135339064891954 0 0 0
112 2 8.70157666897898 3.337318762048836 10.470369275044183 0 0 0
71 4 -2.055158448788574 1.5153227877309594 5.114927088550351 0 0 0
72 2 -0.2095211620143564 3.311553328704722 5.124798486206296 0 0 0
73 2 -0.2634918824359054 1.5070216535077925 6.890128751164889 0 0 0
74 3 -2.0286141500356383 3.3121233138934203 6.846452600549397 0 0 0
75 2 1.5322067570583602 1.5441017949566842 5.099173090954569 0 0 0
78 3 1.5410269955594222 3.244382875220257 6.897217234727196 0 0 0
76 2 3.294852725139098 3.3198514313861334 5.119073767936954 0 0 0
77 1 3.332568489780423 1.5373564139113132 6.894763320976148 0 0 0
81 3 6.9401487592645825 1.4688312129965317 6.955630691364248 0 0 0
79 5 5.086325689706029 1.5350133920752222 5.151602983607385 0 0 0
82 2 5.112195870810378 3.3056419871738854 6.920359794831296 0 0 0
80 5 6.912698276758586 3.301954755515166 5.137055676738731 0 0 0
84 5 8.772861725615252 3.326083569731 6.901624376035573 0 0 0
83 4 8.775645635872582 1.4770534628885676 5.151249577111102 0 0 0
97 3 6.891013237427123 3.310376168627535 8.705493421120618 0 0 0
96 2 5.128262137818267 1.53928593819592 8.693780346267353 0 0 0
86 3 -0.2523327184838011 -0.25175473613195437 8.747126250895459 0 0 0
92 5 -2.0764248642178913 1.4695503906720264 8.706953408370053 1 0 0
88 5 3.285316601066406 -0.19783065112387893 8.67734246370662 0 0 0
90 1 6.935909989452987 -0.2926709101365151 8.701501509737263 0 0 0
104 4 5.122387895019152 -0.25582631986449467 10.436737130605245 0 0 0
103 1 6.896666954073947 -2.081328703719652 10.466824529477433 0 0 0
105 1 8.681121293851897 -0.283315006531155 10.470572710323973 0 0 0
93 5 -0.27661436192503036 3.2905623567921642 8.718430489944192 0 0 0
95 4 3.3357642321752903 3.3015541772236334 8.688663948010523 0 0 0
94 1 1.5079606925485356 1.524115518763442 8.709558245213893 0 0 0
108 2 3.3241103033667154 1.5272479288599063 10.499481720681795 0 0 0
57 3 -2.0479314159173967 -1.9810157275285578 5.164572821910583 1 0 0
91 2 8.70166574512587 -2.0616191994207504 8.73691799496475 0 1 0
100 1 -2.0710186520611167 -0.26572975457836956 10.463084492704168 0 0 0
107 2 -2.083139989756623 3.310180870656468 10.48211226119573 0 0 0
109 5 1.5606293010515628 3.282870704000728 10.462479933426264 0 0 0
110 2 6.910599807880732 1.5332590534253894 10.470629727159004 0 0 0
114 4 -0.2832073340171633 -0.2982765910368539 12.267468314898437 0 0 0
113 4 -2.065605899896642 -2.0598162124885073 12.255320827732238 0 0 0
143 1 1.5685489023090364 -2.0751514467232894 15.910424778462957 0 1 0
118 3 3.363188002874803 -0.2871930953040939 12.312006466747505 0 0 0
141 2 -2.0378589207346858 -2.049967186569561 15.91415922141245 0 0 0
117 2 1.5489553663914546 -2.076807338312296 12.305915802294912 0 0 0
122 3 6.887112036797344 -0.29961596997854945 12.227931766152206 0 0 0
121 2 5.11670579087412 -2.055630819372132 12.286740013249053 0 0 0
125 4 8.705462800803119 -2.078283526978608 12.244939285287236 0 0 0
111 3 5.088328196862377 3.2736521413140505 10.545308849803831 0 0 0
128 3 -0.32483466099682556 3.3642149287145577 12.285163669964911 0 0 0
106 2 -0.3060677670311538 1.5286774677485881 10.508366702814866 0 0 0
115 1 -0.2240089206599642 -2.0801223665167754 14.115875915622622 0 1 0
154 4 8.712991065577114 1.5367287001462977 15.897002486195682 0 0 0
123 3 6.824316098430174 -2.0626447825413656 14.092353462896364 0 1 0
131 5 1.542587105510218 1.5392498502393934 12.304897834470758 0 0 0
132 2 3.330668123082776 3.302226555214255 12.31415612847713 0 0 0
136 1 6.880034714942981 3.3402067923927605 12.24534002025251 0 0 0
135 4 5.112724085090726 1.5192407216745825 12.314025869105857 0 0 0
152 5 5.084885179262041 1.510298995096087 15.925315138798554 0 0 0
139 4 8.69514409908763 1.5500794822433006 12.231789799722563 0 0 0
800 2 10.49321371134594 -2.0544024637539686 14.04660330077364 0 0 0
140 3 8.72469170640375 3.3629731307299027 14.095283414892828 0 0 0
116 4 -2.062935893854619 -0.29465584230546027 14.08418013185289 0 0 0
142 3 -0.27333428174790275 -0.34641853499032244 15.885425580476358 0 0 0
144 3 3.2735101722421995 -0.25292769347530364 15.963788825355541 0 0 0
120 3 1.5257779757844383 -0.3222707668889842 14.090532435654552 0 0 0
827 5 10.485261895004541 -0.32608868042590977 15.893077411044786 0 0 0
145 3 5.075346508881592 -2.07436615916966 15.978096031990951 0 0 0
124 2 5.1175349289439875 -0.2645154946947967 14.111613356601758 0 0 0
146 3 6.92277463882855 -0.2660012878422697 15.910124641928235 0 0 0
126 5 8.71396017888586 -0.2752787967340806 14.058314574891806 0 0 0
147 2 8.69689493915796 -2.0246353321333133 15.889158878597877 0 0 0
148 1 -2.063502658410189 1.5289225065904286 15.891246407182408 0 0 0
149 5 -0.28845216352228487 3.320372051179234 15.927152658146724 0 0 0
129 5 -0.3019857270899084 1.5177363356468876 14.123971888903322 0 0 0
151 2 3.307337337423639 3.2956528778135237 15.91875374421418 0 0 0
150 2 1.5349764697802286 1.492417782544109 15.906018369038406 0 0 0
133 1 3.3156176404252204 1.5182330697731266 14.120044208776525 0 0 0
134 5 1.5451231920574726 3.315485060080926 14.141121207308416 0 0 0
153 3 6.871171860824739 3.315523232492286 15.935782231079513 0 0 0
138 1 5.075250173420812 3.3144426333938157 14.096258918327905 0 0 0
137 5 6.890833182258119 1.606568902642279 14.069394121850383 0 0 0
102 4 1.5273588711137283 -0.2676335743602991 10.525990176771295 0 0 0
170 3 -0.13602480694095032 -0.242321435474959 19.58115531299444 0 0 0
183 5 -2.0249005114900753 1.498358127763415 19.555148352509015 0 0 0
156 1 -2.0519185314152883 -0.2501550399885412 17.703721697314716 0 0 0
158 2 1.5514862153681406 -0.2862614123869416 17.69985827329579 0 0 0
174 4 3.3159825426880265 -0.27471932051724723 19.491999104933726 0 0 0
160 4 5.121663978311083 -0.2506370517569119 17.759986542926665 0 0 0
178 1 6.869536220067184 -0.25892001858186847 19.536596361573647 0 0 0
161 3 8.644510713033895 -0.25665001318995934 17.770505025871174 0 0 0
855 2 10.459550742336832 -0.2605151375099097 19.547904510666978 0 0 0
841 5 10.470996849843825 -2.0595041872905786 17.799163490587 0 0 0
162 5 -0.27621380424233627 1.4731998640494304 17.687270285938904 0 0 0
184 4 -0.23760735533250757 3.29356759584891 19.500791933071756 0 0 0
163 1 -2.06463864881443 3.2925408381380907 17.71135077783939 0 0 0
165 5 1.573661346910468 3.361679743162821 17.69433580159772 0 0 0
187 2 1.5499309215850252 1.5125892829951941 19.502693541901937 0 0 0
164 1 3.2810988035375366 1.526177653413405 17.697443553375635 0 0 0
188 4 3.348905792509634 3.3155937861286198 19.50257371044585 0 0 0
192 5 6.843381876302744 3.2992741976706896 19.53251630779567 0 0 0
167 4 5.09396621427223 3.3078896861090787 17.727430247345307 0 0 0
191 1 5.166223025146139 1.5357244752572512 19.52877653983447 0 0 0
166 1 6.9187876738247995 1.5319254509597457 17.714089172078843 0 0 0
848 5 10.49687231498161 1.5391611454491239 17.711966450373666 0 0 0
195 4 8.680404241030136 1.526777078712618 19.54887241977408 0 0 0
168 5 8.688705764333147 3.3362977218615715 17.696973681947007 0 0 0
869 4 10.496179081655777 3.326643228324067 19.520449688605254 0 0 0
2 5 -0.20076022831534504 -0.28254235267509537 23.04331345568452 0 0 0
169 3 -2.068861256339016 -1.96963608333045 19.469007385473176 1 0 0
172 4 -2.0530786830103165 -0.2983040822534022 21.340829530640107 0 0 0
175 4 3.3113034443463136 -2.075959369177639 21.29719684355109 0 1 0
176 1 1.5518924005028527 -0.26561375653230357 21.31103065882864 0 0 0
180 4 5.111059920573598 -0.2870945324849959 21.311083417325495 0 0 0
179 5 6.8825758565706225 -2.0287330394569962 21.299270080748407 0 0 0
856 5 10.47956250959259 -2.069974939871539 21.29577881451734 0 1 0
182 1 8.674298169059005 -0.2560169330773753 21.332624527002316 0 0 0
186 1 -2.0334352335290484 3.3194739851160575 21.313526833504586 0 0 0
185 1 -0.21721712395684553 1.5336705219066868 21.32163163522956 0 0 0
15 5 -2.0582622954364553 1.513758090552947 23.048679464922813 0 0 0
16 5 -0.25152231433440236 3.2975606866693816 23.04823909807294 0 0 0
155 3 -0.21557569777555308 -2.022931567853451 17.74151887900911 0 1 0
189 3 3.3671630903643908 1.5198792447616518 21.30930380741262 0 0 0
190 5 1.575719013927269 3.290375991993794 21.30659095273962 0 0 0
181 2 8.698452729484043 -2.02823210600085 19.558775394568602 0 1 0
194 2 5.1090348077517325 3.3234346534623276 21.31998768540665 0 0 0
193 1 6.8758773141446055 1.5159094333678287 21.344290922455126 0 0 0
159 4 6.923547677280019 -2.070658236267999 17.74320542772882 0 1 0
196 3 8.679672410810497 3.2898770511576076 21.341843134492063 0 0 0
199 4 -0.20320430441918463 5.099949629517684 -0.3341432820495514 0 0 0
204 2 1.5496154267560427 6.929741832900755 -0.3114871720721821 0 0 0
203 3 3.3016028879425425 5.102218833665127 -0.24443126688172287 0 0 0
346 3 3.2892594902497927 10.496989986939711 -2.020544887787526 0 0 0
208 4 5.129188637971517 6.921448698552268 -0.26213577984137154 0 0 0
207 1 6.915368985937622 5.084395220395601 -0.26575752514442613 0 0 0
205 4 5.115321857293998 5.1166039568228925 -2.0515080657285187 0 0 0
883 4 10.45458640892695 6.918136764959044 -2.040156824579552 0 0 0
210 4 8.661145822551486 6.922360794918236 -0.24435331824394935 0 0 0
884 4 10.498331063841837 5.100978315714876 -0.27112357711416113 0 0 0
218 3 -2.0305036354405246 5.115133051007897 1.4903261873502036 1 0 0
212 3 -0.30526720235304405 8.60495468554376 -0.37061619135355583 0 0 0
374 3 3.2777715033917905 10.484362652393443 1.4772343017073304 0 0 0
238 1 8.67397868801357 8.736044277845753 1.5361998957034635 0 0 0
200 1 -2.0603947942616827 6.864607233907118 -0.34351693394487887 1 0 0
214 2 3.280138625161227 8.740348335951332 -0.2923798560265356 0 0 0
215 3 5.169785751366917 8.765014788482011 -1.9963851340866283 0 0 0
349 1 5.114376289813291 10.49184589885042 -0.2573224792351285 0 0 0
216 1 6.918596219287392 8.761625832314147 -0.2979130123775105 0 0 0
217 1 8.66349172043377 8.724998464617176 -2.0638650965682306 0 0 0
897 3 10.438053427264624 8.711890459239921 -0.21623739649678234 0 0 0
219 3 -0.19743151634771008 6.826105954325203 1.4792640454531616 0 0 0
220 2 -0.2082762666367442 5.070171990762409 3.33795704757931 0 0 0
221 5 -2.0088655794469297 6.827554528768918 3.3118095380627275 0 0 0
224 2 3.292714050910689 5.097856141456364 3.3302991906982164 0 0 0
223 4 3.3064844352141356 6.924505336563812 1.5357796337504246 0 0 0
225 3 1.5143201926935073 6.844491591931238 3.3739662804439314 0 0 0
222 2 1.549361771460089 5.071565145788704 1.5361268773835677 0 0 0
228 4 6.880315445916923 5.120003957833529 3.3199684866844588 0 0 0
229 1 5.054656812771236 6.9576051537723 3.365085280342608 0 0 0
226 4 5.109646884834929 5.12380243367797 1.5334664279486345 0 0 0
227 4 6.876178488572984 6.9343661394832194 1.5453529587532193 0 0 0
231 1 8.71370692838836 6.92877796272812 3.2823570411208394 0 0 0
230 5 8.698094921491725 5.120421189320798 1.5377675186399309 0 0 0
918 5 10.462166278851779 8.712520126406094 3.216841715616959 0 0 0
206 1 6.901318144110377 6.8989969564421685 -2.0194312209286216 0 0 0
233 3 -0.24818840996989044 8.664437073699082 3.3896923692226357 0 0 0
232 4 -1.9873333082602687 8.64383008170188 1.5086480277019447 0 0 0
235 2 3.2600368075355677 8.720148850649853 3.3491146981557476 0 0 0
234 3 1.5168121120178046 8.687889793985503 1.4947770510879528 0 0 0
375 3 1.4914208398948614 10.481086287378291 3.3939907544834123 0 0 0
236 4 5.097615702544551 8.731698338334944 1.5224307818235543 0 0 0
237 2 6.895264634344758 8.73817408873875 3.2941956315980865 0 0 0
209 4 8.665552152170257 5.106332125552369 -2.0547419781782317 0 0 1
240 2 -0.23874513975542538 6.894210956065453 5.1606048001493825 0 0 0
241 5 -0.23516223429389618 5.1544558355667265 6.929208024140169 0 0 0
242 2 -2.0476804058072946 6.915082136734099 6.956000348173446 0 0 0
239 4 -2.0560784363238462 5.1230732171455236 5.133398184323563 0 0 0
243 2 1.5325027070245207 5.096454561685135 5.114507413996901 0 0 0
246 1 1.518190774495965 6.926073039898846 6.920868853644162 0 0 0
244 5 3.3154782788249557 6.938018948477392 5.138632433509056 0 0 0
245 4 3.304451604708849 5.122375640028002 6.927556752124042 0 0 0
247 4 5.090445561699529 5.111640098989786 5.110555455909638 0 0 0
250 4 5.124219572146373 6.961621528198517 6.90763681832776 0 0 0
248 5 6.869341069924892 6.981670890344818 5.052300173314745 0 0 0
249 4 6.912773031872823 5.13254016973278 6.883059622282861 0 0 0
251 3 8.762483371794175 5.137074870149304 5.000313690968349 0 0 0
252 4 8.672723203475867 6.921784885708844 6.8950787752093685 0 0 0
280 3 6.855119433885385 8.635567053778578 10.468610997348064 0 0 0
270 2 8.69933877005007 8.691561181200841 8.678615084595023 0 0 0
253 4 -2.0396656295746824 8.671523357917225 5.1490015577534525 0 0 0
254 1 -0.26379663112481755 8.69346341319004 6.950100343690113 0 0 0
255 2 1.5112876016786996 8.693594951959483 5.158161080323504 0 0 0
256 1 3.283121136374657 8.707031461864009 6.909205725742567 0 0 0
272 2 -2.08034141412236 6.922538880471773 10.474056758006796 0 0 0
257 1 5.07801205000753 8.73409676642732 5.0934548298557445 0 0 0
258 1 6.8950808116535045 8.735880850780445 6.903983668267005 0 0 0
404 5 6.885947860092504 10.486582943736893 5.093169847508376 0 0 0
259 4 8.689380973270346 8.722011991001086 5.06579272197666 0 0 0
939 3 10.474738807913875 8.686896097506239 6.9152472724875365 0 0 0
261 1 -0.26788140517784376 6.928115725145421 8.704172768846009 0 0 0
271 4 -0.2835421263452719 5.1322420575598775 10.454743326575429 0 0 0
260 2 -2.0645250330658147 5.126383815626997 8.70021917566229 0 0 0
262 2 1.5101482131992108 5.144387345179703 8.69984836631601 0 0 0
263 5 3.261632062193759 6.985536363408328 8.721642410628023 0 0 0
274 1 1.5023434783990721 6.946866052354242 10.496922808881433 0 0 0
273 4 3.298105560049069 5.127871263166868 10.472455046696078 0 0 0
276 1 5.0764639368449895 6.936177635670969 10.474134010123384 0 0 0
264 5 5.1309236159198 5.165972867080287 8.689784905035436 0 0 0
265 1 6.895308067289805 6.946411909315231 8.703548745190547 0 0 0
400 2 -0.24269907232748825 10.488603224180347 5.184466711580526 0 0 0
266 4 8.696271637294624 5.131794797099178 8.718063804881268 0 0 0
267 2 -2.042602106240183 8.700798020200248 8.720403867851445 0 0 0
430 3 6.855374996243602 10.46454487478393 8.656886850330798 0 0 0
268 1 1.4982618446631422 8.705981210169803 8.714133896327208 0 0 0
429 4 3.3036775311568762 10.498783390518643 8.725537743401697 0 0 0
269 2 5.0899007637776945 8.7150786499561 8.703520705669998 0 0 0
401 5 -2.0208263989622313 10.49961687456186 6.949866329392371 0 0 0
403 5 1.5137534345764092 10.475607990643626 6.948462268235513 0 0 0
405 3 5.028245553968946 10.454863112689532 6.869195190154242 0 0 0
406 5 8.706357516739534 10.499651823692146 6.902730526443645 0 0 0
277 3 8.740644680197986 7.001888903615988 10.493438068371333 0 0 0
956 1 10.496068098871474 5.1253445429361175 10.49213209880767 0 0 0
282 5 -0.26228429853980534 6.8606909378182 12.300494291239465 0 0 0
302 3 -2.0691175201173664 5.089699353918841 15.91285649700795 1 0 0
285 3 1.5363136907003334 5.081064415318843 12.289896862659685 0 0 0
286 3 3.3046860205728295 6.937568400881897 12.269459290341501 0 0 0
289 2 5.060677393888488 5.107756422099221 12.278183635006332 0 0 0
290 4 6.862767278422658 6.9485141251837055 12.322312691315407 0 0 0
275 5 6.873877745412706 5.190396739808976 10.537369751444873 0 0 0
293 3 8.732244901619246 5.0699880985506605 12.252245522303365 0 0 0
295 2 -2.077035776795011 8.698022442507103 12.279082594307363 1 0 0
297 2 1.5353514538289554 8.701328083435909 12.288398995280836 0 0 0
300 5 6.874646223823356 8.697051015779033 14.134812460571384 0 0 0
299 5 5.052004974697289 8.705402176274871 12.30897850456269 0 0 0
485 5 3.2858856941749846 10.466106377443706 15.950856815589269 0 0 0
311 1 5.09788513259342 8.711064949968067 15.88608187291691 0 0 0
301 1 8.714991667032207 8.70293136534541 12.367883486403661 0 0 0
283 1 -0.27752759883341144 5.093372407724318 14.132065962412826 0 0 0
303 5 -0.26717742803211686 6.8566418119901975 15.90787051792966 0 0 0
288 5 1.5191845772195842 6.911428627969245 14.13538731567712 0 0 0
304 1 1.5302806791965455 5.096443922123818 15.901045374278045 0 0 0
287 5 3.361499575026412 5.096266958909628 14.11591549548133 0 0 0
305 4 3.325915741488915 6.9308739859210355 15.901453429092689 0 0 0
291 3 6.809925105713811 5.07005046041839 14.010322475518263 0 0 0
292 1 5.078094672339523 6.923276140899893 14.097871445798592 0 0 0
306 5 5.09326612734826 5.104776827610694 15.924857779251303 0 0 0
307 3 6.837768965926147 6.9438694176683855 15.94057964209364 0 0 0
486 1 6.887348258467276 10.484453242106293 15.894874052564033 0 0 0
308 4 8.657059525801632 5.160501765438869 15.895289716961754 0 0 0
294 3 8.715907427629345 6.903202553904234 14.063206772583229 0 0 0
484 2 -0.24965477801486757 10.495784296374108 15.886537913543382 0 0 0
296 4 -0.275101808136327 8.697033011637163 14.083389459054986 0 0 0
312 4 8.707088306334526 8.655683374947305 15.920017376250986 0 0 0
459 3 1.490084610631011 10.485086129644245 14.045515599484991 0 0 0
298 2 3.2917484354496613 8.715685212801398 14.107358216318552 0 0 0
310 2 1.5141029853953936 8.71831140355345 15.907069214271637 0 0 0
1142 3 10.482764034961368 10.47772378477099 12.385352169416834 0 0 0
445 5 8.69350636042057 10.371466194979076 10.533457031238905 0 0 0
278 3 -0.26674349380578294 8.679754506760506 10.51068543364098 0 0 0
279 2 3.2873740337704236 8.730947151005449 10.520323621681776 0 0 0
313 2 -0.29227429728052173 5.118996509122509 17.716595336373008 0 0 0
324 2 -0.28012909595754143 6.912615858286536 19.488764290366124 0 0 0
323 3 -2.0010062146412912 5.1056161867590175 19.52102255540832 0 0 0
316 3 1.550918283559865 6.844486371629859 17.690972462368993 0 0 0
327 4 1.5565739406611936 5.1412065343029 19.530615187899325 0 0 0
315 1 3.352094237708617 5.141670717324719 17.703975222048683 0 0 0
328 2 3.347990549975074 6.91442608472572 19.524754902496603 0 0 0
318 3 5.08681824065099 7.005256742123425 17.789478707972002 0 0 0
331 1 5.10781552674329 5.151390656489944 19.546609055503026 0 0 0
317 4 6.875049944854948 5.152276246603357 17.749901672577085 0 0 0
332 2 6.881462842259343 6.93164554478057 19.535209623602004 0 0 0
319 1 8.70831551354075 6.90688560418576 17.7488575246601 0 0 0
335 5 8.7000440355452 5.1565069515847215 19.508913910445692 0 0 0
201 4 1.6024108313559815 5.135832106364572 23.051524809537646 0 0 0
320 4 -0.2735022782409248 8.692466427548272 17.676196753895383 0 0 0
512 4 -0.2647057905222969 10.479037250592363 19.485470081970096 0 0 0
1023 4 10.459178397005104 8.723713274019662 21.304989706494027 0 0 0
339 5 1.52125503480169 8.684200986426276 19.499544092194604 0 0 0
321 1 3.281497237811981 8.702258247583543 17.721355062709183 0 0 0
500 5 5.168560377230389 10.42710310770772 17.663474029241407 0 0 0
341 1 5.117872473557364 8.71543141444647 19.513641218841453 0 0 0
322 1 6.905092249102359 8.6698621122833 17.714157747867702 0 0 0
516 2 6.867197299927668 10.484645274110973 19.482989573801103 0 0 0
343 5 8.682246062454903 8.696811231423924 19.476837991054776 0 0 0
501 4 8.672108493984394 10.49206865451084 17.678082894554997 0 0 0
325 3 -0.22786600989022374 5.175226506869748 21.30299921361882 0 0 0
342 3 6.855940701154024 8.740560996908052 21.327776276588693 0 0 0
515 2 1.5184394231918956 10.497713214104024 21.31270688596034 0 0 0
330 1 1.542422874074482 6.9513979171374 21.28063379676845 0 0 0
329 2 3.367152297502555 5.140640659750219 21.296901919111615 0 0 0
202 5 3.320968302168046 6.993012549772637 23.057844320018447 0 0 0
333 2 6.874724612830443 5.141474327859971 21.295969351317535 0 0 0
334 1 5.133420899309013 6.927504257254176 21.3194008177077 0 0 0
340 4 3.34177486827168 8.754035495579533 21.282604717046446 0 0 0
514 3 3.3332518293773132 10.485926650889532 19.41451765389722 0 0 0
338 2 -0.26268436660602446 8.703971773767657 21.293219445012507 0 0 0
336 5 8.682153227775206 6.913606391934099 21.3492956052278 0 0 0
513 2 -2.072503825651761 10.451123082163056 21.295309065650287 0 0 0
197 5 -2.080116799370746 5.156430493204875 23.044559556879815 1 0 0
337 1 -2.0593748803539107 8.708444568858303 19.480175765706772 1 0 0
314 1 -2.0621948150339016 6.895000544964587 17.71439864539288 1 0 0
1005 3 10.485799717547755 8.667511946678328 17.745110212289816 0 0 0
326 4 -2.07079460578246 6.95956646257081 21.285558987296394 1 0 0
499 1 1.516801788798955 10.494585331810592 17.67649534471255 0 0 0
211 1 -2.0385911407445825 8.70195916234194 23.081466507589756 1 0 -1
344 1 -0.2786670532307718 10.497099197475398 23.028382204729247 0 0 -1
213 2 1.4929057749040182 8.712130304863583 23.06816915145891 0 0 -1
198 2 -0.2352973530609135 6.931240799415971 23.057822045201842 0 0 -1
353 3 -0.2579809851040634 12.393465029189386 -0.354163427424467 0 0 0
357 1 3.267506906385374 12.293990970385858 -0.27118817965485115 0 0 0
1065 5 10.48912184423599 14.068949040072916 1.485454547240385 0 0 0
355 1 1.500709008445123 12.294815897106913 -2.0751374093271333 0 0 0
361 2 6.914637476660906 12.27876762822437 -0.22845214158154087 0 0 0
359 4 5.124629832808943 12.266959562783672 -2.0018553887362938 0 0 0
363 4 8.668839999091654 12.3160703833073 -2.0415764498778213 0 0 0
1038 1 10.489263336933213 12.295088773763027 -0.26312161368644216 0 0 0
350 3 8.647738585934064 10.513926632992696 -0.23086935099041822 0 0 0
366 5 -0.23599403159483962 15.910102180411323 -0.319315786753568 0 0 0
348 1 6.90174069131445 10.50167233532414 -2.048027754226403 0 0 0
358 2 1.5229353524158316 14.104544770390557 -0.27724963223755916 0 0 0
368 4 3.3094720190387448 15.916007272987677 -0.2838883385335989 0 0 0
367 1 1.5101113535062296 15.92114069763566 -2.0517583940482895 0 0 0
356 5 3.263106678021692 14.046712694604233 -2.046186352232701 0 0 0
362 5 5.096788538508253 14.097830080559216 -0.1914799026548245 0 0 0
370 4 6.888715027791207 15.928112874188734 -0.23877417381373098 0 0 0
360 4 6.8799917651766 14.102885506287013 -2.0327765306393446 0 0 0
1037 3 10.477327259899972 14.134754659735039 -1.9401594496914571 0 0 0
364 1 8.686586961804645 14.097812042432428 -0.23748012099086796 0 0 0
371 3 8.66277348030661 15.907190754404281 -1.9937183246977503 0 0 0
379 5 -2.042538650675019 12.383555683994786 1.5408753736662357 0 0 0
381 3 -0.24323463880566712 12.365894949164478 3.3766627782373635 0 0 0
392 4 8.727647533782305 14.090953756957154 3.3216895661989674 0 0 0
383 4 1.5163609509099196 12.334299334298613 1.536078355210996 0 0 0
385 3 3.285418022807457 12.35024694542768 3.3401294368709054 0 0 0
376 2 6.912020515685661 10.506042492499608 1.5315218909263018 0 0 0
389 3 6.913330598999859 12.35244085061579 3.296262073927255 0 0 0
387 4 5.087559041217348 12.279858854536464 1.4935680062305976 0 0 0
378 2 8.694135719202723 10.538035078565402 3.269320833826713 0 0 0
391 2 8.686712450276152 12.294679117018763 1.5136794385672048 0 0 0
382 1 -2.078167194539806 14.148829707470192 3.344172433223646 0 0 0
394 2 -0.24700547911653123 15.916618456484272 3.3719278404669235 0 0 0
380 5 -0.24977734733497164 14.159458951740309 1.5885963297487276 0 0 0
384 1 3.2988608524948 14.111642636530568 1.5011211867748948 0 0 0
395 3 1.5578107328709807 15.896413589762265 1.5270697894831928 0 0 0
396 5 3.379036745263298 15.892808801996402 3.2594186334534885 0 0 0
386 1 1.5648942630966378 14.139360376947227 3.345504431930133 0 0 0
388 1 6.920017456253508 14.089747549056042 1.491622982099317 0 0 0
398 4 6.9022991993032266 15.883561819999791 3.306821415419167 0 0 0
397 1 5.105074073822165 15.935943424316832 1.5103752542273623 0 0 0
390 4 5.12209142984244 14.098572595462734 3.288658157807585 0 0 0
399 3 8.726366212909365 15.904870070288345 1.522744710978803 0 0 0
1030 3 10.445944987957796 10.510398652212412 -2.0260365634826165 0 0 0
1058 2 10.474430379118354 10.54787096797227 1.5080236248862273 0 0 0
393 4 -2.07138653418529 15.914340132644357 1.546363020835042 1 0 0
373 5 -1.9535729367475825 10.506468186700209 3.358688112370783 0 0 0
345 3 -1.983443824677965 10.507547422051662 -0.3452139304854583 0 0 0
347 5 1.4324092529396089 10.522825094218298 -0.33962703155021035 0 0 0
372 3 -0.2646735203092669 10.517662933708317 1.5144597525701382 0 0 0
377 4 5.063806427613512 10.521461945159825 3.3324965001975078 0 0 0
409 1 -0.27389026399621735 12.308399907139721 6.955588134454488 0 0 0
407 4 -2.0542518749264764 12.323314758060379 5.1402403925595745 0 0 0
1118 3 10.481916664246661 14.1484683888455 8.690673952542843 0 0 0
441 1 8.706708185815675 15.861618745254175 8.715758439329324 0 0 0
411 5 1.4923522401366938 12.353838590351716 5.194461640060165 0 0 0
413 4 3.312520826654334 12.318348741995836 6.948637120681813 0 0 0
431 3 -2.0378623693387397 12.333103129540266 8.757431102874515 1 0 0
415 2 5.0905394156436685 12.305788346524364 5.103559273802652 0 0 0
417 4 6.875715730684552 12.29972326920831 6.882167200490501 0 0 0
1086 3 10.498148060375554 10.532149623506111 5.061536536147143 0 0 0
419 4 8.725036229977336 12.32183563326531 5.103357509531011 0 0 0
402 1 3.2699754692595904 10.50904400476513 5.121048300743422 0 0 0
421 2 -2.0659470308773678 15.896231741100324 5.1168899220571396 0 0 0
410 3 -2.041652507723012 14.163403121401915 6.944800170248122 0 0 0
408 3 -0.2957715721674325 14.162467967776669 5.118041918779409 0 0 0
422 2 -0.270484868381469 15.88420090203907 6.923746121704194 0 0 0
414 1 1.5001694392553884 14.111263387580296 6.955104154011459 0 0 0
423 3 1.5065576289971143 15.863104359346162 5.15663784912023 0 0 0
412 5 3.3261757886022467 14.131537658189993 5.144510265422563 0 0 0
424 2 3.3144063942692488 15.869555212219202 6.9428635026277945 0 0 0
426 5 6.907349170777296 15.923292970555964 6.894712068975373 0 0 0
418 5 5.109838976386227 14.090680731322339 6.936082997778625 0 0 0
425 2 5.116012520712125 15.906250888065637 5.129516834843938 0 0 0
416 1 6.853641116571269 14.106038843859357 5.128155903617795 0 0 0
427 3 8.750072125960711 15.866177397559094 5.074731938608701 0 0 0
420 4 8.721629950012028 14.115237406241956 6.858046327869758 0 0 0
455 4 6.888920289767694 15.86540892373374 10.485506021166433 0 0 0