LAMMPS data file via write_data, version 2 Aug 2023, timestep = 8015, units = metal

1372 atoms
5 atom types

-2.0842303644726106 23.084230364472596 xlo xhi
-2.0842303644726106 23.084230364472596 ylo yhi
-2.0842303644726106 23.084230364472596 zlo zhi

Masses

1 58.933
2 58.69
3 51.96
4 55.847
5 54.94

Atoms # atomic

3 5 -0.21486237749041556 -2.0589723488703737 -0.3014489187922748 0 0 0
4 4 -2.0680662024126932 -0.29520014468700784 -0.3052823183766704 0 0 0
46 4 -2.0655133080858725 3.3392361251845704 3.3637978089627336 1 0 0
8 2 1.5445651188602088 -0.2609152170895009 -0.2806134038723819 0 0 0
702 3 10.497978048036435 1.521599209934771 -0.28799935775613733 0 0 0
6 4 3.3355784902653514 -0.28071992761777925 -2.036980711316131 0 0 0
12 2 5.132662511399746 -0.27313527947395233 -0.282315364377099 0 0 0
9 2 5.129288343512783 -2.06979046072291 -2.036022223303818 0 0 0
10 2 6.884177907659362 -0.2515688844790341 -2.050780704597588 0 0 0
687 5 10.496471365439556 -0.2636707092541374 -2.0735290636091652 0 0 0
14 4 8.689172694177033 -0.28947892617253745 -0.27402075435753054 0 0 0
27 1 8.689456818597439 1.5081268770384735 -2.07980812245891 0 0 0
17 4 -0.26126598159764663 1.511824631465197 -0.2898968476279969 0 0 0
19 2 1.5753228734935543 1.5138611767517 -2.0714079504644696 0 0 0
20 2 3.3612403753103037 3.2966152897865464 -2.071161511241743 0 0 0
22 3 1.5977626531568876 3.24940429874381 -0.2936367404718033 0 0 0
21 1 3.3323934617526167 1.5291812111031857 -0.2738062396412327 0 0 0
23 1 5.112197330164225 1.528179335778351 -2.0433482976636914 0 0 0
25 2 6.888396449499911 1.5044274257342094 -0.27484822261720665 0 0 0
26 1 5.080429295940282 3.299567014047067 -0.25374692230113816 0 0 0
24 4 6.884457309289519 3.2994758814468486 -2.0328722573613796 0 0 0
28 2 8.687725470826885 3.269277007759781 -0.2773422614181541 0 0 0
31 1 -0.26075128139846815 -2.075985821523696 3.3293412496300148 0 0 0
30 5 -0.21407363185949607 -0.24163004380217404 1.5327330572625208 0 0 0
32 5 -2.0311380647461994 -0.2624564682112853 3.3525902631317903 0 0 0
33 1 1.5042652988434544 -2.0626176793338646 1.527620344763009 0 0 0
36 5 1.5299308625921066 -0.29566944363955866 3.324495338203181 0 0 0
34 4 3.333779678509114 -0.29695392548811816 1.480623250592547 0 0 0
38 4 6.875531382795905 -0.26874631502870766 1.508091258657676 0 0 0
40 3 5.056898402726235 -0.3526694582497481 3.3010029642026932 0 0 0
56 3 8.813721626177612 3.2394793680399787 3.3286656387598508 0 0 0
51 2 5.08277696138129 1.5230376456789385 1.4984034685481107 0 0 0
42 5 8.738831520188864 -0.26666065977012465 3.283704283541373 0 0 0
44 3 -0.20719984881310347 3.2780345776573583 1.5566474385798355 0 0 0
45 2 -0.22252227724255572 1.5448062466637424 3.3451480703459167 0 0 0
55 1 8.71796841086474 1.496907220131519 1.5234960636074601 0 0 0
50 2 1.544086896576989 3.3181898322051016 3.33102531734606 0 0 0
48 2 3.30863856354475 3.3126626594429367 1.5251130512343944 0 0 0
47 1 1.5468471107345403 1.5262153990593446 1.5340602366650233 0 0 0
49 3 3.280621241781658 1.56459974611304 3.2868564014538695 0 0 0
54 5 5.091085216989668 3.3139637484199325 3.302572933962357 0 0 0
52 4 6.9158773888308875 3.275551419286228 1.4874013190704576 0 0 0
53 5 6.904773167230363 1.5051426219456963 3.3060739015936145 0 0 0
58 1 -0.2462438082483413 -0.256460797203002 5.098243999188591 0 0 0
64 4 1.5267152441059255 -0.2444902413854114 6.879103685597873 0 0 0
62 4 3.33678587055756 -0.2973227865137879 5.132170982945344 0 0 0
68 4 5.119691994984743 -0.2962325918245985 6.9402486446394365 0 0 0
66 4 6.914494106300419 -0.30037047863697597 5.128039005630427 0 0 0
98 3 8.7280833378786 1.481366678617207 8.799882301141814 0 0 0
71 4 -2.055671151489218 1.5147918015537414 5.114564102205126 1 0 0
70 1 8.737180184522684 -0.3141449107960638 6.94661492371449 0 0 0
69 5 8.69284241453007 -2.076143960112022 5.134976077992431 0 0 0
72 2 -0.21003386453483597 3.3110223424390988 5.1244355000003665 0 0 0
73 2 -0.26400458498147017 1.506490667045736 6.8897657647659765 0 0 0
75 2 1.5316940545860975 1.5435708086917763 5.098810104600924 0 0 0
78 3 1.5405142932496818 3.243851888782005 6.896854248430633 0 0 0
76 2 3.2943400228433344 3.31932044509266 5.118710781594312 0 0 0
77 1 3.332055787588376 1.5368254274940045 6.894400334415439 0 0 0
81 3 6.939636057283873 1.4683002264889042 6.955267704624951 0 0 0
79 5 5.085812987538164 1.534482405743583 5.151239997052076 0 0 0
82 2 5.1116831687033075 3.3051110007701494 6.919996808269202 0 0 0
80 5 6.912185574645952 3.3014237691712465 5.136692690120898 0 0 0
84 5 8.772349023489882 3.3255525832459223 6.901261389264735 0 0 0
83 4 8.775132933791516 1.4765224764507705 5.15088659024873 0 0 0
86 3 -0.2528454212429586 -0.25228572258445653 8.746763264227788 0 0 0
88 5 3.2848038990308037 -0.19836163740502016 8.676979477139769 0 0 0
74 3 -2.029126852696269 3.3115923274547954 6.846089614313764 1 0 0
90 1 6.935397287475456 -0.29320189655556356 8.701138523028565 0 0 0
104 4 5.1218751930467 -0.2563573062152413 10.436374143976922 0 0 0
103 1 6.896154252132407 -2.0818596900133355 10.466461543000122 0 0 0
91 2 8.701153043054584 -2.0621501858958946 8.736555008298453 0 0 0
105 1 8.680608591926791 -0.2838459929287828 10.47020972368517 0 0 0
93 5 -0.27712706450275687 3.2900313700454875 8.718067503431488 0 0 0
95 4 3.335251530031122 3.301023190627892 8.68830096152484 0 0 0
94 1 1.5074479902598645 1.523584532248438 8.709195258682682 0 0 0
101 3 3.344013158136269 -2.08201633685881 10.47481791287158 0 0 0
97 3 6.890500535406554 3.309845182076185 8.705130434424484 0 0 0
85 4 -2.071211314884998 -2.082642313324353 8.715864547069009 1 1 0
96 2 5.127749435787648 1.5387549517508377 8.693417359588947 0 0 0
112 2 8.701063966947856 3.3367877754247184 10.470006288357682 0 0 0
59 4 -0.25986314994217197 -2.0493436939859118 6.90828334901752 0 0 0
110 2 6.91008710591995 1.532728066915018 10.470266740515722 0 0 0
92 5 -2.076937567045057 1.4690194040292228 8.706590421765734 1 0 0
57 3 -2.0484441185579527 -1.9815467141154357 5.164209835395303 1 0 0
60 1 -2.0751205996327187 -0.26436162173192845 6.9160354043867525 1 0 0
109 5 1.560116598547467 3.2823397172243443 10.46211694681213 0 0 0
108 2 3.3235976011648556 1.5267169422966185 10.49911873416904 0 0 0
100 1 -2.071531354932425 -0.26626074118905674 10.462721506051555 1 0 0
107 2 -2.0836526925143417 3.3096498837774817 10.481749274505178 1 0 0
114 4 -0.2837200367647102 -0.29880757769235095 12.267105328199325 0 0 0
118 3 3.362675300532706 -0.28772408177513314 12.311643479996278 0 0 0
102 4 1.5268461686027206 -0.2681645608538203 10.525627189979707 0 0 0
117 2 1.5484426639166209 -2.077338324540358 12.305552815582868 0 0 0
122 3 6.886599334821719 -0.3001469563479218 12.227568779568116 0 0 0
121 2 5.116193088713962 -2.0561618055205195 12.286377026830158 0 0 0
125 4 8.704950098814265 -2.0788145131350344 12.244576298963466 0 0 0
153 3 6.870659158315851 3.3149922456527343 15.935419244949726 0 0 0
140 3 8.724179004355163 3.362442143897069 14.094920428559686 0 0 0
128 3 -0.3253473636932373 3.3636839416458493 12.284800683291135 0 0 0
106 2 -0.3065804697313222 1.5281464810452527 10.508003716159232 0 0 0
154 4 8.712478363313393 1.5361977137249139 15.896639500048513 0 0 0
131 5 1.5420744029557452 1.5387188634379343 12.30453484782426 0 0 0
132 2 3.3301554207270154 3.301695568353294 12.313793141889695 0 0 0
113 4 -2.066118602672244 -2.0603471990432176 12.254957840968963 1 1 0
136 1 6.879522012811786 3.3396758057199114 12.24497703364781 0 0 0
135 4 5.112211382922894 1.518709735065779 12.313662882556295 0 0 0
137 5 6.890320479981155 1.6060379161878482 14.069031135521524 0 0 0
139 4 8.694631397039942 1.5495484957882926 12.231426813211822 0 0 0
142 3 -0.2738469845202287 -0.34694952187615785 15.885062593901145 0 0 0
115 1 -0.22452162335169124 -2.080653352940528 14.115512928942614 0 0 0
141 2 -2.038371623663597 -2.0504981731436653 15.913796234835841 1 0 0
144 3 3.2729974694624935 -0.2534586798414065 15.96342583906738 0 0 0
120 3 1.5252652731428815 -0.3228017534057016 14.090169449015303 0 0 0
143 1 1.568036199769354 -2.075682432977399 15.910061792009962 0 0 0
145 3 5.074833806323476 -2.074897144898728 15.977733045651263 0 0 0
124 2 5.117022226667236 -0.26504648112844065 14.111250370029662 0 0 0
146 3 6.922261936556926 -0.2665322741881015 15.909761655799313 0 0 0
123 3 6.8238033963495655 -2.0631757684824525 14.091990476553915 0 0 0
126 5 8.713447476833224 -0.2758097828839718 14.057951588693225 0 0 0
147 2 8.696382236935245 -2.025166318217169 15.888795892540536 0 0 0
149 5 -0.2889648662543959 3.3198410641120613 15.926789671543146 0 0 0
129 5 -0.3024984299286096 1.5172053486984363 14.123608902305941 0 0 0
150 2 1.5344637669837988 1.491886795810468 15.905655382540106 0 0 0
133 1 3.315104937943112 1.5177020829497567 14.11968122221656 0 0 0
134 5 1.5446104894417418 3.3149540730719473 14.140758220654584 0 0 0
151 2 3.30682463470153 3.295121890869555 15.918390757721603 0 0 0
138 1 5.074737470957963 3.3139116464823997 14.095895931943216 0 0 0
152 5 5.084372476718002 1.5097680081702636 15.924952152489045 0 0 0
148 1 -2.064015361329826 1.5283915196142919 15.890883420584306 1 0 0
116 4 -2.063448596882946 -0.29518682916838007 14.083817145270737 1 0 0
800 2 10.492701009219656 -2.0549334499069567 14.046240314673915 0 0 0
827 5 10.484749192878311 -0.32661966669997533 15.89271442504785 0 0 0
111 3 5.087815494858299 3.27312115460085 10.544945863246 0 0 0
170 3 -0.13653750977595305 -0.24285242200996923 19.58079232664032 0 0 0
155 3 -0.2160884004955054 -2.0234625542741367 17.741155892627614 0 0 0
158 2 1.5509735126705193 -0.28679239889646696 17.699495287073084 0 0 0
174 4 3.315469839913679 -0.27525030683802304 19.49163611895075 0 0 0
172 4 -2.0535913856594377 -0.2988350688159571 21.340466544659158 1 0 0
160 4 5.121151275628169 -0.2511680380404764 17.75962355700812 0 0 0
178 1 6.869023517465949 -0.2594510048265087 19.536233375583066 0 0 0
856 5 10.479049807063651 -2.0705059263480887 21.295415828183675 0 0 0
159 4 6.923034974710997 -2.0711892223711255 17.742842441723102 0 0 0
161 3 8.643998010603775 -0.257180999455966 17.770142039829796 0 0 0
841 5 10.47048414742278 -2.0600351736190787 17.79880050457186 0 0 0
162 5 -0.2767265070780497 1.4726688771034024 17.686907299424327 0 0 0
184 4 -0.23812005809333942 3.2930366089695644 19.500428946651596 0 0 0
165 5 1.5731486441685345 3.361148756261722 17.693972815152854 0 0 0
187 2 1.5494182187304284 1.512058296366155 19.502330555715183 0 0 0
164 1 3.2805861007405905 1.5256466668148494 17.69708056716194 0 0 0
188 4 3.3483930896928933 3.315062799476587 19.50221072423246 0 0 0
192 5 6.842869173638032 3.298743211255419 19.532153321592144 0 0 0
167 4 5.093453511521822 3.307358699351006 17.72706726105544 0 0 0
191 1 5.165710322494016 1.5351934888673884 19.528413553818336 0 0 0
166 1 6.918274971312731 1.5313944645075397 17.713726185935023 0 0 0
869 4 10.495666379194885 3.3261122420625973 19.520086702409493 0 0 0
848 5 10.496359612669893 1.538630159098028 17.71160346419187 0 0 0
195 4 8.679891538463746 1.5262460925132098 19.54850943363181 0 0 0
168 5 8.68819306193528 3.3357667353913762 17.696610695748312 0 0 0
183 5 -2.025413214178659 1.4978271408913877 19.554785366238654 1 0 0
176 1 1.5513796975834313 -0.2661447428866791 21.31066767276992 0 0 0
175 4 3.3107907415295097 -2.076490355414833 21.296833857563403 0 0 0
163 1 -2.0651513514746327 3.2920098510944036 17.710987791367124 1 0 0
179 5 6.882063153895952 -2.029264025787491 21.298907094634913 0 0 0
180 4 5.110547217849765 -0.28762551880000986 21.310720431294367 0 0 0
182 1 8.67378546639403 -0.2565479193243323 21.33226154080978 0 0 0
186 1 -2.0339479360712414 3.3189429985233074 21.313163847208067 0 0 0
16 5 -0.2520350170064335 3.2970297003096802 23.047876112053824 0 0 0
185 1 -0.21772982675378277 1.533139535351812 21.321268649186557 0 0 0
15 5 -2.058774998008605 1.513227104139237 23.04831647892071 0 0 0
189 3 3.3666503876327796 1.5193482583622844 21.308940821434295 0 0 0
190 5 1.575206311122131 3.2898450054286985 21.306227966588526 0 0 0
194 2 5.108522104990304 3.322903667121752 21.319624699279416 0 0 0
193 1 6.875364611464437 1.5153784471380003 21.343927936321784 0 0 0
196 3 8.679159708184853 3.289346064997452 21.34148014829913 0 0 0
181 2 8.697940026866254 -2.0287630923202995 19.558412408450664 0 0 0
169 3 -2.0693739590146407 -1.9701670698714548 19.468644399284564 1 0 0
2 5 -0.2012729310813521 -0.28307333916637917 23.042950469895445 0 0 0
855 2 10.459038039762397 -0.26104612381363895 19.547541524515868 0 0 0
156 1 -2.0524312343149234 -0.2506860267064041 17.703358710835218 1 0 0
199 4 -0.20371700686586253 5.09941864343591 -0.3345062680484427 0 0 0
200 1 -2.0609074967056102 6.864076247591516 -0.34387992008902846 0 0 0
218 3 -2.0310163379933392 5.114602065116173 1.4899632013313642 1 0 0
204 2 1.5491027243117548 6.929210846676054 -0.31185015814111083 0 0 0
203 3 3.3010901853105996 5.101687847495809 -0.24479425297717694 0 0 0
205 4 5.11480915450531 5.116072970544041 -2.0518710518814163 0 0 0
208 4 5.128675935367747 6.9209177124951236 -0.2624987660858011 0 0 0
207 1 6.914856283299426 5.083864234387884 -0.2661205114438889 0 0 0
206 1 6.9008054413060185 6.89846597023658 -2.0197942073625534 0 0 0
210 4 8.660633119949955 6.921829808952162 -0.24471630478038275 0 0 0
209 4 8.665039449539025 5.105801139516429 -2.055104964518369 0 0 0
212 3 -0.30577990485637613 8.604423699005645 -0.370979177468653 0 0 0
214 2 3.2796259226507605 8.739817349685165 -0.29274284226944364 0 0 0
216 1 6.918083516635266 8.76109484621004 -0.29827599884989925 0 0 0
374 3 3.277258800903113 10.483831666120297 1.4768713156677633 0 0 0
215 3 5.169273048546835 8.764483802157043 -1.99674812061554 0 0 0
884 4 10.497818361387148 5.100447329871215 -0.2714865637334142 0 0 0
897 3 10.437540724680403 8.711359473285151 -0.21660038315930363 0 0 0
217 1 8.66297901761485 8.724467478390583 -2.064228083273322 0 0 0
219 3 -0.19794421872818102 6.82557496819013 1.4789010596902978 0 0 0
220 2 -0.20878896910837058 5.069641004737428 3.337594061598365 0 0 0
221 5 -2.009378282267821 6.827023542496691 3.311446552199994 0 0 0
224 2 3.292201348574902 5.097325155257253 3.329936204516797 0 0 0
223 4 3.305971732879027 6.923974350513454 1.5354166476798787 0 0 0
225 3 1.5138074906354593 6.84396060573098 3.3736032945638783 0 0 0
222 2 1.5488490690483014 5.071034159710842 1.5357638913705378 0 0 0
228 4 6.8798027435964855 5.119472971763213 3.319605500294165 0 0 0
229 1 5.05414411053754 6.957074167736195 3.3647222941513726 0 0 0
226 4 5.109134182351219 5.123271447595929 1.5331034417145455 0 0 0
227 4 6.875665786112179 6.933835153538847 1.5449899724084275 0 0 0
231 1 8.713194226021583 6.92824697669009 3.2819940546686603 0 0 0
230 5 8.69758221904502 5.119890203337089 1.5374045320892222 0 0 0
238 1 8.673465985553703 8.735513291830237 1.5358369091784352 0 0 0
233 3 -0.248701112398777 8.663906087191956 3.389329383412863 0 0 0
232 4 -1.9878460109099627 8.64329909519169 1.5082850418027514 0 0 0
235 2 3.25952410525437 8.719617864490392 3.3487517122197064 0 0 0
234 3 1.516299409688315 8.687358807682674 1.4944140651635842 0 0 0
375 3 1.4909081374251856 10.480555300967481 3.3936277687267964 0 0 0
237 2 6.894751931995675 8.737643102701744 3.293832645315489 0 0 0
236 4 5.097103000113801 8.731167352326887 1.5220677956446416 0 0 0
883 4 10.454073706334075 6.917605779006653 -2.040519811183086 0 0 0
918 5 10.461653576427096 8.711989140368388 3.216478729054758 0 0 0
349 1 5.113863587211373 10.491314912612411 -0.2576854656663246 0 0 0
346 3 3.288746787464769 10.496459000517133 -2.020907874265653 0 0 1
240 2 -0.239257842151775 6.893679969660493 5.160241814123469 0 0 0
241 5 -0.23567493671939968 5.15392484906539 6.928845037938082 0 0 0
242 2 -2.048193108282888 6.914551150212218 6.955637362103524 0 0 0
243 2 1.5319900046937884 5.095923575361088 5.114144427882116 0 0 0
246 1 1.517678072240353 6.925542053372353 6.920505867537357 0 0 0
244 5 3.314965576648783 6.937487962188594 5.138269447465569 0 0 0
245 4 3.3039389025449695 5.121844653625987 6.927193765810631 0 0 0
247 4 5.089932859521829 5.111109112759119 5.110192469517586 0 0 0
250 4 5.123706870058692 6.961090541814451 6.907273832064513 0 0 0
248 5 6.868828367740376 6.981139904267095 5.051937186989444 0 0 0
249 4 6.912260329790921 5.132009183395355 6.882696635722815 0 0 0
251 3 8.761970669582803 5.136543883959675 4.999950704374844 0 0 0
252 4 8.672210501375583 6.92125389942268 6.894715788708208 0 0 0
254 1 -0.26430933344383906 8.692932426647332 6.949737357753247 0 0 0
253 4 -2.0401783320185682 8.670992371462528 5.148638571971464 0 0 0
255 2 1.5107748994172012 8.693063965581146 5.157798094465433 0 0 0
256 1 3.2826084341569044 8.706500475395648 6.908842739773051 0 0 0
403 5 1.5132407323035837 10.475077004184197 6.9480992824605305 0 0 0
956 1 10.49555539674945 5.12481355621198 10.491769112247725 0 0 0
404 5 6.885435157859449 10.486051957602633 5.092806861410691 0 0 0
257 1 5.077499347839125 8.733565780248819 5.0930918438020845 0 0 0
258 1 6.894568109542212 8.735349864471452 6.903620682115588 0 0 0
939 3 10.474226105785958 8.686365111159216 6.914884285989838 0 0 0
259 4 8.688868270997824 8.721481004963344 5.065429735616383 0 0 0
406 5 8.705844814660113 10.499120837415402 6.902367540207298 0 0 0
261 1 -0.2683941075692365 6.927584738459192 8.703809782677432 0 0 0
260 2 -2.0650377356594003 5.125852828912712 8.699856189265205 0 0 0
262 2 1.5096355108934556 5.143856358479313 8.699485379971758 0 0 0
263 5 3.261119359995954 6.985005376743031 8.721279424460304 0 0 0
273 4 3.2975928577995375 5.127340276283372 10.47209206029106 0 0 0
264 5 5.130410913793673 5.165441880467506 8.689421918560699 0 0 0
265 1 6.894795365251502 6.945880922734867 8.703185758779783 0 0 0
405 3 5.027732851890369 10.454332126280514 6.86883220430222 0 0 0
276 1 5.07595123468014 6.93564664877415 10.473771023824911 0 0 0
266 4 8.695758935307879 5.131263810523853 8.717700818174748 0 0 0
277 3 8.740131978134633 7.001357916829243 10.4930750819193 0 0 0
267 2 -2.0431148086497255 8.700267033624385 8.720040881718358 0 0 0
429 4 3.3031648289501176 10.498252403839945 8.725174757482034 0 0 0
268 1 1.4977491423746152 8.705450223536543 8.713770910293759 0 0 0
239 4 -2.056591138930603 5.12254223082135 5.1330351983230615 1 0 0
269 2 5.089388061702799 8.714547663345739 8.703157719536264 0 0 0
280 3 6.8546067317834245 8.635036066839225 10.4682480110965 0 0 0
430 3 6.854862294263867 10.464013888257654 8.656523864241 0 0 0
401 5 -2.021339101296341 10.499085888050958 6.949503343554318 0 0 0
270 2 8.698826067965793 8.691030194664762 8.678252098248795 0 0 0
400 2 -0.24321177464650398 10.488072237732576 5.184103725839048 0 0 0
271 4 -0.2840548288534086 5.131711070648123 10.454380340093186 0 0 0
274 1 1.5018307760307434 6.946335065453428 10.496559822596714 0 0 0
272 2 -2.080854116650002 6.922007893655504 10.473693771586179 1 0 0
282 5 -0.26279700113437404 6.8601599508243405 12.30013130477229 0 0 0
486 1 6.886835555730482 10.483922255341396 15.894511065838074 0 0 0
484 2 -0.25016748045047893 10.49525330968271 15.886174926663603 0 0 0
285 3 1.5358009881144543 5.08053342831145 12.289533876079084 0 0 0
286 3 3.304173318253008 6.937037413821222 12.269096303912873 0 0 0
459 3 1.48957190824262 10.484555142831773 14.045152612687854 0 0 0
289 2 5.060164691736425 5.107225435123214 12.277820648577604 0 0 0
290 4 6.862254576298287 6.947983138034691 12.321949705054605 0 0 0
293 3 8.731732199490885 5.0694571116018325 12.25188253587585 0 0 0
312 4 8.706575603686566 8.655152388094018 15.919654389769908 0 0 0
278 3 -0.26725619622852603 8.679223520053407 10.510322447470744 0 0 0
295 2 -2.0775484793447774 8.697491455674044 12.278719607829766 1 0 0
300 5 6.8741335214944925 8.696520028800576 14.134449474142892 0 0 0
279 2 3.286861331571415 8.73041616418397 10.519960635510946 0 0 0
297 2 1.5348387514817816 8.700797096459617 12.288036008900992 0 0 0
485 5 3.285372991577979 10.465575390621813 15.950493828743209 0 0 0
299 5 5.0514922725224904 8.704871189192804 12.308615518283242 0 0 0
301 1 8.71447896472782 8.702400378440984 12.367520500064806 0 0 0
1142 3 10.482251332497453 10.477192798102468 12.38498918312265 0 0 0
283 1 -0.2780403015040722 5.092841420554192 14.131702975756998 0 0 0
303 5 -0.26769013064996705 6.8561108249564615 15.907507531180721 0 0 0
302 3 -2.0696302227598364 5.089168366821209 15.912493510274905 0 0 0
288 5 1.518671874605234 6.910897640869294 14.13502432910281 0 0 0
304 1 1.5297679764942205 5.095912935070557 15.900682387687212 0 0 0
287 5 3.360986872455561 5.095735971820847 14.115552508913131 0 0 0
305 4 3.32540303888727 6.930342998855905 15.901090442443262 0 0 0
291 3 6.809412403497657 5.069519473237568 14.009959489335001 0 0 0
292 1 5.077581970013793 6.922745153723605 14.097508459400778 0 0 0
306 5 5.092753424704514 5.10424584055694 15.924494792820239 0 0 0
307 3 6.837256263374547 6.943338430564921 15.94021665561094 0 0 0
310 2 1.51359028284613 8.71778041662627 15.906706227502728 0 0 0
308 4 8.656546823517608 5.159970778641584 15.894926730696575 0 0 0
294 3 8.715394725361906 6.9026715669095005 14.062843786231818 0 0 0
296 4 -0.2756145106486092 8.696502024762665 14.08302647242217 0 0 0
298 2 3.291235733029778 8.71515422574701 14.106995229770465 0 0 0
311 1 5.097372430032097 8.710533962987153 15.88571888630353 0 0 0
275 5 6.873365043384876 5.189865753133586 10.53700676484279 0 0 0
445 5 8.692993658243678 10.37093520836111 10.533094044967374 0 0 0
313 2 -0.2927869998973005 5.11846552213555 17.716232349740476 0 0 0
324 2 -0.28064179839566594 6.912084871576113 19.48840130369859 0 0 0
323 3 -2.0015189169621777 5.105085200139915 19.52065956893495 0 0 0
314 1 -2.0627075174431253 6.89446955807076 17.714035658751538 0 0 0
316 3 1.550405580888267 6.843955384711505 17.690609475651687 0 0 0
327 4 1.556061237896394 5.140675547528856 19.530252201406896 0 0 0
315 1 3.351581534919888 5.141139730449162 17.703612235560556 0 0 0
328 2 3.347477847220933 6.913895097973477 19.524391915950748 0 0 0
318 3 5.086305537873701 7.004725755222459 17.78911572136817 0 0 0
331 1 5.107302823923107 5.150859669768912 19.546246069124518 0 0 0
317 4 6.874537242191554 5.1517452598632625 17.749538686235187 0 0 0
332 2 6.880950139423962 6.9311145581521405 19.53484663712084 0 0 0
319 1 8.70780281084268 6.906354617450407 17.74849453830262 0 0 0
335 5 8.699531332914873 5.155975965134911 19.50855092414858 0 0 0
198 2 -0.23581005551183998 6.93070981295954 23.05745905893085 0 0 0
500 5 5.168047674412741 10.426572120941326 17.663111042468298 0 0 0
337 1 -2.0598875825982166 8.707913582152708 19.47981277900301 0 0 0
320 4 -0.27401498073803876 8.691935440755868 17.675833766987946 0 0 0
512 4 -0.2652184928949261 10.478506263862073 19.48510709509884 0 0 0
339 5 1.520742332215986 8.683669999712157 19.499181105472115 0 0 0
321 1 3.2809845351334403 8.701727260715018 17.72099207588468 0 0 0
1005 3 10.48528701483431 8.666980960129058 17.744747225781555 0 0 0
516 2 6.866684596939043 10.484114287487417 19.482626587071913 0 0 0
341 1 5.117359770651187 8.714900427774191 19.513278232175757 0 0 0
322 1 6.904579546275519 8.66933112539953 17.71379476122168 0 0 0
343 5 8.68173335958261 8.696280244848868 19.47647500442148 0 0 0
325 3 -0.22837871237589003 5.1746955202766385 21.302636227277258 0 0 0
501 4 8.671595791010352 10.49153766779719 17.677719907898364 0 0 0
330 1 1.5419101714267003 6.9508669304859305 21.280270810344803 0 0 0
329 2 3.3666395947150622 5.1401096731788165 21.2965389327789 0 0 0
201 4 1.6018981287051393 5.135301119947493 23.051161823423172 0 0 0
202 5 3.3204555994815146 6.992481563358412 23.057481333708385 0 0 0
333 2 6.874211910080192 5.140943341506736 21.295606365055665 0 0 0
334 1 5.132908196414882 6.926973270731503 21.3190378312331 0 0 0
336 5 8.681640525019018 6.9130754056556745 21.348932618757306 0 0 0
338 2 -0.2631970689731421 8.70344078719946 21.292856458489336 0 0 0
326 4 -2.071307308016358 6.959035476015077 21.28519600080726 1 0 0
340 4 3.341262165458915 8.753504509026794 21.282241730512183 0 0 0
213 2 1.492393072344107 8.711599318405202 23.06780616513876 0 0 0
342 3 6.855427998192932 8.740030010402478 21.327413289958514 0 0 0
1023 4 10.458665694254064 8.723182287857082 21.304626719754083 0 0 0
513 2 -2.0730165277862227 10.45059209556469 21.294946078936764 1 0 0
515 2 1.5179267205066187 10.497182227594758 21.312343899361103 0 0 0
344 1 -0.27917975565657555 10.496568210945046 23.028019218405618 0 0 0
499 1 1.51628908625252 10.494054345101206 17.6761323577978 0 0 0
514 3 3.3327391264957194 10.485395664208733 19.41415466708133 0 0 0
211 1 -2.0391038430241224 8.70142817580584 23.08110352107204 1 0 -1
197 5 -2.080629501736789 5.155899506894475 23.044196570615465 0 0 -1
353 3 -0.25849368747080104 12.392934042521409 -0.3545264134852854 0 0 0
357 1 3.2669942038085216 12.293459983865075 -0.27155116576185095 0 0 0
347 5 1.431896550408798 10.522294107684381 -0.3399900176346732 0 0 0
361 2 6.914124773930681 12.278236641976001 -0.22881512824361108 0 0 0
1065 5 10.488609141540097 14.068418053816423 1.4850915606345245 0 0 0
359 4 5.124117129869127 12.266428576329565 -2.002218375388843 0 0 0
363 4 8.668327296253215 12.315539396924954 -2.041939436790676 0 0 0
1038 1 10.488750634200946 12.294557787615123 -0.26348460045935573 0 0 0
392 4 8.727134831308986 14.090422770707677 3.3213265798568443 0 0 0
366 5 -0.23650673383516332 15.909571193797259 -0.3196787726528987 0 0 0
399 3 8.72585351012017 15.904339083741307 1.5223817242464321 0 0 0
358 2 1.5224226499819251 14.104013783736029 -0.27761261821044464 0 0 0
368 4 3.308959316462201 15.915476286354798 -0.28425132463633945 0 0 0
372 3 -0.265186222686541 10.517131946985241 1.5140967666879799 0 0 0
362 5 5.096275835805671 14.097299093970337 -0.19184288900360366 0 0 0
370 4 6.888202324945978 15.9275818875424 -0.23913716063666476 0 0 0
360 4 6.879479062119612 14.102354519777567 -2.0331395175601354 0 0 0
364 1 8.686074259012022 14.097281056029184 -0.23784310789874136 0 0 0
371 3 8.662260777356044 15.906659767695473 -1.9940813117993965 0 0 0
1037 3 10.47681455713902 14.134223673198052 -1.9405224369201837 0 0 0
381 3 -0.24374734117006677 12.365363962663995 3.3762997924807707 0 0 0
379 5 -2.0430513526891967 12.38302469727792 1.5405123877015312 0 0 0
373 5 -1.9540856391231947 10.50593720010317 3.358325126660254 0 0 0
383 4 1.5158482484388613 12.333768347707572 1.5357153693462287 0 0 0
385 3 3.2849053204525056 12.349715958953729 3.3397664510118523 0 0 0
398 4 6.901786496851885 15.883030833507744 3.306458429221993 0 0 0
388 1 6.919504753739079 14.089216562737235 1.49125999566949 0 0 0
389 3 6.912817896753544 12.351909864293109 3.2958990877668097 0 0 0
387 4 5.08704633880866 12.27932786811865 1.493205020064383 0 0 0
1058 2 10.473917676534153 10.547339981937862 1.5076606382659234 0 0 0
391 2 8.686199747672832 12.294148130861926 1.5133164519672424 0 0 0
390 4 5.121578727573649 14.098041608915514 3.288295171799946 0 0 0
378 2 8.693623016804192 10.537504092503776 3.268957847400925 0 0 0
394 2 -0.2475181813650543 15.916087469719002 3.371564854709653 0 0 0
380 5 -0.25029004951032907 14.158927965185411 1.5882333437893477 0 0 0
393 4 -2.071899236303933 15.91380914584795 1.5460000349852696 0 0 0
384 1 3.2983481500667793 14.111111649963876 1.500758200807238 0 0 0
395 3 1.5572980306584145 15.895882603152472 1.5267068037583418 0 0 0
396 5 3.3785240430549646 15.892277815413534 3.2590556476334713 0 0 0
386 1 1.5643815608246558 14.138829390304297 3.345141446165477 0 0 0
397 1 5.104561371376533 15.93541243772264 1.5100122679852583 0 0 0
382 1 -2.0786798966818267 14.148298720661609 3.3438094473491637 1 0 0
377 4 5.063293725327882 10.52093095901523 3.332133514208087 0 0 0
348 1 6.9012279884457834 10.501141348994729 -2.048390740927262 0 0 0
345 3 -1.9839565268855885 10.50701643544456 -0.345576916606669 1 0 0
1030 3 10.4454322851385 10.509867666012402 -2.0263995503086627 0 0 0
376 2 6.91150781323683 10.505511506380422 1.5311589044997795 0 0 0
350 3 8.647225883228693 10.513395646861543 -0.23123233765812662 0 0 0
356 5 3.262593975214047 14.046181707988895 -2.046549338630456 0 0 1
355 1 1.5001963059449677 12.294284910461204 -2.0755003956067206 0 0 1
367 1 1.5095986509737978 15.920609711040612 -2.0521213800769296 0 0 1
409 1 -0.274402966273972 12.307868920623465 6.955225148675453 0 0 0
407 4 -2.054764577363908 12.32278377137297 5.1398774068696005 0 0 0
1118 3 10.48140396194634 14.147937402825052 8.690310966299366 0 0 0
440 2 5.094243545477278 15.887983736300631 8.71503188942456 0 0 0
411 5 1.491839537922636 12.353307603894683 5.1940986543342476 0 0 0
413 4 3.31200812450479 12.317817755523835 6.948274135015081 0 0 0
415 2 5.090026713462469 12.305257360150547 5.103196287959613 0 0 0
417 4 6.875203028610767 12.299192282882961 6.881804214574779 0 0 0
455 4 6.888407587647019 15.864877937762337 10.485143035018142 0 0 0
419 4 8.72452352778866 12.321304647086565 5.1029945233112235 0 0 0
441 1 8.706195483628074 15.861087759175847 8.715395453136711 0 0 0
408 3 -0.2962842745564558 14.161936981037725 5.117678933116393 0 0 0
422 2 -0.2709975707114635 15.88366991547698 6.923383135783357 0 0 0
410 3 -2.0421652101305603 14.162872134806085 6.944437184429756 0 0 0
421 2 -2.066459733236927 15.895700754357609 5.116526936094405 0 0 0
414 1 1.4996567370833203 14.110732401064595 6.954741168247608 0 0 0
423 3 1.5060449267616367 15.862573372502744 5.156274863359905 0 0 0
412 5 3.3256630865159966 14.131006671622147 5.144147279595558 0 0 0
424 2 3.3138936921485813 15.869024225824779 6.942500516641388 0 0 0
426 5 6.9068364686007895 15.922761984346629 6.894349082850181 0 0 0
418 5 5.109326274274053 14.09014974490765 6.935720011966952 0 0 0
425 2 5.115499818498986 15.905719901615637 5.12915384882677 0 0 0
416 1 6.853128414349219 14.105507857554297 5.127792917650679 0 0 0
427 3 8.749559423694352 15.865646411330479 5.074368952241026 0 0 0
420 4 8.721117247810554 14.114706420098692 6.857683341696807 0 0 0
1086 3 10.497635358188289 10.53161863734359 5.061173549693856 0 0 0
431 3 -2.03837507152531 12.332572143069315 8.757068116965781 0 0 0