LAMMPS data file via write_data, version 2 Aug 2023, timestep = 4122, units = metal

1372 atoms
5 atom types

-2.096156487400592 23.096156487400147 xlo xhi
-2.096156487400592 23.096156487400147 ylo yhi
-2.096156487400592 23.096156487400147 zlo zhi

Masses

1 58.933
2 58.69
3 51.96
4 55.847
5 54.94

Atoms # atomic

2 2 -0.33296976572962333 -0.22680119021868134 -2.0740870953969006 0 0 0
3 1 -0.2996964148042847 -2.0669807850690063 -0.26733112504405876 0 0 0
5 4 1.4519063394490894 -2.053290454084954 -2.0953160749601394 0 0 0
8 5 1.4800220153382997 -0.29873337257779375 -0.2994301219276752 0 0 0
7 5 3.2978406790341164 -2.0661234171313456 -0.3098787041734927 0 0 0
6 2 3.3002926688106515 -0.262281262490188 -2.0637588317079776 0 0 0
235 2 3.2519559578173984 8.76102279167976 3.284967103252484 0 0 0
17 3 -0.3616581617596225 1.4781342795261376 -0.28948739351220926 0 0 0
22 4 1.4896068169305179 3.32928104920269 -0.2819269619375851 0 0 0
21 2 3.292868631945121 1.4966335249840574 -0.24706730413897499 0 0 0
19 4 1.5092266762313982 1.530284778042425 -2.047906571778599 0 0 0
199 1 -0.3234384977866035 5.120102060291403 -0.31266166165429504 0 0 0
234 1 1.4610164086909465 8.718738388441857 1.5072820170847445 0 0 0
204 4 1.4759704459772522 6.916198960932875 -0.3090794408940587 0 0 0
203 5 3.231160128799699 5.1072030329159075 -0.2594824113902576 0 0 0
223 3 3.2126709875095183 6.995434217115092 1.530502473325747 0 0 0
212 5 -0.2786994768919038 8.710144701559015 -0.300215056399469 0 0 0
225 5 1.4211583872029117 6.954739139737996 3.27439043086048 0 0 0
214 1 3.27236237228912 8.730393840100263 -0.3163581347614259 0 0 0
200 5 -2.0783415700270638 6.850371292319455 -0.31214002170861754 1 0 0
224 2 3.2283185567977837 5.11820675708982 3.2530183882750348 0 0 0
31 4 -0.3298990459966902 -2.049377219568088 3.3102284622418288 0 0 0
30 2 -0.33985027209826135 -0.2624453280322326 1.5070494101019698 0 0 0
36 1 1.501756350545234 -0.25113050570966383 3.294232678246661 0 0 0
34 2 3.2860265212301534 -0.27031137765371793 1.5162563791043118 0 0 0
33 5 1.4668063889186185 -2.0576394888952243 1.567054131920766 0 0 0
35 1 3.2560903895495765 -2.062492678076469 3.3145721866584914 0 0 0
45 3 -0.37754659314753075 1.438813203657948 3.288348743129873 0 0 0
44 3 -0.3656216689580426 3.3797365311631595 1.4123955693352672 0 0 0
50 3 1.428071922807219 3.340490543578664 3.2121773991286644 0 0 0
48 2 3.2561571790278445 3.3029905970705813 1.5145642416726648 0 0 0
49 2 3.263577933662748 1.5175339177758898 3.2717702025153215 0 0 0
47 3 1.5168576838489445 1.4547048508118656 1.5054711625850998 0 0 0
219 4 -0.3420223825229924 6.919360674255397 1.493105205284302 0 0 0
220 3 -0.37274676120420913 5.153928450908072 3.300491982844773 0 0 0
233 1 -0.33294928214897596 8.739448152997412 3.274955154098482 0 0 0
222 1 1.4623841275932343 5.114042371821032 1.5156784652015496 0 0 0
345 5 -2.0700421868874597 10.498101624889529 -0.33507098558334136 0 0 0
16 5 -0.35991711571947665 3.362466186945099 -2.06691936369711 0 0 1
20 5 3.328548462203038 3.3531544131242748 -2.088651533620247 0 0 1
58 4 -0.3368294220737246 -0.2771661589041714 5.102694801182861 0 0 0
260 4 -2.086757449996681 5.137203784597358 8.709787028121044 0 0 0
64 4 1.4764823978654242 -0.21489665953001114 6.897220050890028 0 0 0
62 1 3.247701785315625 -0.2444820924757918 5.076984152082444 0 0 0
63 4 3.264509856644049 -2.039810904566023 6.913325663552953 0 0 0
268 5 1.46744845445487 8.725112213505723 8.776652986370937 0 0 0
263 3 3.313380370516452 6.927844579182838 8.753446363971703 0 0 0
72 3 -0.45065673765599695 3.325006035949554 5.133700967111606 0 0 0
73 5 -0.44879593803576895 1.5531690411554147 6.936357230130895 0 0 0
75 3 1.4953629206326218 1.5415553642047557 5.058208272733152 0 0 0
78 3 1.445963960108963 3.2370818214418002 6.9738443151213385 0 0 0
76 3 3.3748718946518976 3.2383946494997264 5.056922037404825 0 0 0
77 2 3.2732348818625168 1.5201644305917492 6.890279470234004 0 0 0
240 5 -0.335645685829067 6.988549810797301 5.132674864899643 0 0 0
241 4 -0.3332324140827554 5.12088702974752 6.8962299047984175 0 0 0
243 5 1.5451838185880218 5.014982375831736 5.126702623103008 0 0 0
246 5 1.4918144350717575 6.961510442715869 6.935084294584296 0 0 0
244 3 3.15537607475663 6.989370434263838 5.0276948910658295 0 0 0
254 1 -0.3166443067478085 8.703708451391078 6.924422588528755 0 0 0
400 3 -0.3574889635804277 10.48042680311147 5.002913342246019 0 0 0
245 3 3.2581123494161974 5.047646006593343 7.041180487518638 0 0 0
255 2 1.4435573594719808 8.760818350289956 5.068015389440799 0 0 0
256 3 3.2548243890690016 8.83640688905538 6.891803586099391 0 0 0
261 2 -0.31932256860108726 6.946839535228977 8.741655489290945 0 0 0
86 4 -0.3507901489909276 -0.28688911895182145 8.719483526442637 0 0 0
88 5 3.2710473252143255 -0.23746095438977585 8.75664598659336 0 0 0
87 1 1.4912770013695966 -1.9860115722299434 8.680171291629115 0 0 0
93 1 -0.3384901518691814 3.3046323225427896 8.757912798177903 0 0 0
262 3 1.3396869955285764 5.083787304688574 8.747082634157808 0 0 0
95 3 3.2167658918457516 3.166913258288114 8.761226761318825 0 0 0
94 4 1.41651145539871 1.4788958601850606 8.779905286656513 0 0 0
59 1 -0.27024957519387255 -2.031897734665634 6.882784572251975 0 1 0
61 5 1.5327138145053694 -2.0599277479427265 5.076358984988654 0 1 0
401 5 -2.0704291462498574 10.476530441035655 6.864158021655619 1 0 0
114 2 -0.3304740837651699 -0.25725039220474294 12.334365461835056 0 0 0
118 4 3.2762142915946146 -0.24048499711102353 12.339130666568263 0 0 0
102 1 1.4653801180484864 -0.3173965219950287 10.54921981386383 0 0 0
128 4 -0.3469071126299468 3.3262328392950407 12.321320710340505 0 0 0
119 5 3.285661756200096 -1.9776076353981962 14.122558385457136 0 0 0
106 1 -0.3431421594381228 1.4967697332090049 10.53880718684614 0 0 0
131 4 1.452600644246232 1.5323458406621 12.308017774776603 0 0 0
132 1 3.2583807240743523 3.3048721575325373 12.33163062171066 0 0 0
109 1 1.4276610338668563 3.3190582628349126 10.516437081741534 0 0 0
108 2 3.2535197092933625 1.5288787809265016 10.571109215888123 0 0 0
282 5 -0.3316797855768814 6.894092179907068 12.373785768671926 0 0 0
271 1 -0.30371634332400066 5.159607723912137 10.529193872296958 0 0 0
117 1 1.4826127468541135 -2.0017245011864677 12.379072456172054 0 0 0
99 4 -0.31956766188519625 -2.041976345890817 10.540622312719915 0 0 0
285 3 1.5023557781964065 5.009033250537186 12.331571327492172 0 0 0
286 2 3.267965121235559 6.8675105296375305 12.329558382067475 0 0 0
274 3 1.452849331975335 6.873834551818423 10.540742637167929 0 0 0
273 5 3.254972912981644 5.040118602742548 10.500396891862565 0 0 0
278 3 -0.3490177886864913 8.758411018992344 10.549223825184452 0 0 0
310 1 1.4600241244156502 8.715486446541796 15.927735991925632 0 0 0
485 5 3.2418774082922677 10.465374797273077 16.013958266147732 0 0 0
297 3 1.4739172571627845 8.711975689016828 12.327865419344494 0 0 0
279 5 3.3587195890497554 8.723766155545352 10.55277505261825 0 0 0
115 3 -0.3131204196725087 -2.0072112639821738 14.061007439720129 0 0 0
142 5 -0.3592909145606917 -0.2597642274680725 15.98024574311966 0 0 0
144 4 3.304993222421407 -0.2079176767196283 15.906059734953132 0 0 0
120 2 1.4148535169971426 -0.24712161585664755 14.149555102231256 0 0 0
143 3 1.488776497380571 -1.9669031449048895 15.978066709277867 0 0 0
149 3 -0.35353496177121657 3.2465780361513397 15.95216331019304 0 0 0
129 3 -0.3771994713808247 1.5117435282889695 14.101570143095913 0 0 0
298 5 3.260108187833993 8.63194945056984 14.163528996577572 0 0 0
134 1 1.4422642861427235 3.3050099280228147 14.165090090379488 0 0 0
133 4 3.2636279413052387 1.5270894377455209 14.117076070614111 0 0 0
151 5 3.25681256795317 3.2464284874546228 15.908238790676595 0 0 0
150 2 1.4319135976800799 1.508981244935561 15.931914644367499 0 0 0
283 3 -0.3009607736689381 5.0674797818501105 14.185617232853904 0 0 0
303 1 -0.3576877638054535 6.895600016434668 15.900464815221262 0 0 0
288 4 1.464450032385382 6.89606393896699 14.172488385114821 0 0 0
304 2 1.4429081346518418 5.085331725582047 15.948892989753302 0 0 0
287 4 3.26325258503252 5.079602112605591 14.159988154551957 0 0 0
305 1 3.2642656157859244 6.885665140153036 15.968111273558579 0 0 0
296 2 -0.3334082230636149 8.723453483628486 14.138818579013922 0 0 0
456 2 -0.30044967357311525 10.495563990731503 12.34392465737389 0 0 0
484 3 -0.34239616387335314 10.455206731111009 15.96341097983177 0 0 0
101 4 3.2878135291087554 -2.0317500253973435 10.52540601998465 0 1 0
170 1 -0.3282401285725021 -0.22076495322443437 19.54609642121265 0 0 0
157 3 3.3350156975348773 -1.9021597058176924 17.742416961852893 0 0 0
158 2 1.4594019961121556 -0.21342864916228188 17.77323439886194 0 0 0
174 2 3.2788023727028457 -0.22172121003703693 19.53575553982403 0 0 0
162 1 -0.33171654691616337 1.5299580210488652 17.74069419546104 0 0 0
184 3 -0.38572045846911085 3.3138347655916536 19.54524838797308 0 0 0
165 3 1.4312841260407048 3.2897033628507284 17.75151571086809 0 0 0
187 1 1.443696278342665 1.5485868922916874 19.533163874003133 0 0 0
164 4 3.294610881550869 1.5114850509078364 17.746977913939276 0 0 0
188 5 3.3318653878060647 3.312651689104221 19.550694864173096 0 0 0
313 2 -0.3293037751890432 5.079872725809677 17.7009061072693 0 0 0
324 4 -0.3210283589868018 6.864535596366619 19.50396530057731 0 0 0
316 4 1.437435457208113 6.891308075783718 17.69861115378922 0 0 0
327 2 1.4564632333515837 5.064205058862733 19.536906469100842 0 0 0
315 5 3.264966937845968 5.110308135710352 17.720597892583626 0 0 0
328 4 3.2215615822545205 6.889328584672154 19.523048490545282 0 0 0
320 4 -0.342628478748598 8.685540818533743 17.734564824724814 0 0 0
339 1 1.4899791532872364 8.710174091117862 19.568083190723467 0 0 0
321 1 3.219304623605036 8.682198185798972 17.726141373612812 0 0 0
171 5 -0.33460115729441253 -2.0392039589921596 21.303693090296196 0 0 0
176 5 1.4540011649713587 -0.19179238283535624 21.311492902476857 0 0 0
213 2 1.485081146266117 8.70945524026653 23.0687637395105 0 0 0
173 3 1.4867618400948301 -2.0142093084406234 19.516266690420615 0 1 0
340 2 3.253597010688976 8.708149061015053 21.317546911372812 0 0 0
185 2 -0.3498685880692763 1.5550794384656548 21.344147278430267 0 0 0
190 3 1.4742792151346629 3.317564141602198 21.308663169576253 0 0 0
155 3 -0.34694188379546326 -2.0026448709332847 17.84753195917582 0 1 0
189 4 3.308196865254057 1.5242591528110374 21.308897771706775 0 0 0
325 4 -0.35551569436996366 5.133779636920133 21.324526782601943 0 0 0
198 1 -0.28729742844327416 6.90132202249576 23.089792338562397 0 0 0
330 1 1.4882179587269708 6.884915184139304 21.309565379642983 0 0 0
329 1 3.2615492035241167 5.077311868040288 21.298025490659498 0 0 0
202 4 3.2484238908680605 6.893215819843565 23.09177474039736 0 0 0
338 5 -0.2871786663434638 8.621807776383548 21.25781218521652 0 0 0
201 1 1.4839251734604895 5.084960716062479 23.08474714386701 0 0 0
211 3 -2.0845774727668243 8.619531959212562 23.07811664384364 1 0 0
512 4 -0.32946799993701814 10.496717023718675 19.499440211306226 0 0 0
499 2 1.4693975352594704 10.483380377195612 17.75968846717076 0 0 0
175 5 3.310208613112045 -2.06896807010072 21.331423779321838 0 1 0
344 2 -0.299884291729534 10.499990825807412 23.077704676358593 0 0 -1
353 5 -0.32215973389218744 12.344679132817824 -0.2824885350337153 0 0 0
393 5 -2.095081217687735 15.963949487611673 1.5160501861709827 1 0 0
351 2 -2.092543480641538 12.311489461574212 -2.0875547745717853 1 0 0
357 5 3.2665934067381306 12.404164244144606 -0.23331971171067115 0 0 0
347 4 1.47390547683589 10.524954282472622 -0.2730105110389465 0 0 0
355 5 1.4672985704122834 12.36299290591352 -2.091635971451314 0 0 0
366 1 -0.3879302639262337 15.961776433199658 -0.2834091167106226 0 0 0
352 5 -0.41734322270288904 14.207357271549055 -2.077771606777845 0 0 0
358 4 1.4197826294580809 14.210222668152992 -0.26004679949170173 0 0 0
368 4 3.273194223485402 15.94690609179569 -0.22790827600922242 0 0 0
346 5 3.2800374813937356 10.531498929420096 -2.077930344642738 0 0 0
549 2 -0.3520821826130941 19.536698694362077 -0.2618597710084418 0 0 0
551 4 1.4637879692938758 19.519162698421376 -2.065922823984491 0 0 0
543 4 1.4428808256040557 17.70890241567653 -0.27881836479492106 0 0 0
553 1 3.278055384540573 19.509841961340722 -0.289958981311619 0 0 0
542 5 3.2683089734870885 17.671107723289214 -2.0571273063918127 0 0 0
548 1 -0.33877157408344954 21.325571912667787 -2.0661404728711448 0 0 0
554 5 1.4611535949798808 21.2900355417285 -0.30318639711271833 0 0 0
552 1 3.277828503178183 21.33853667238541 -2.0665501771531614 0 0 0
540 2 -0.3595126062466514 17.743081016996353 -2.0694367082826433 0 0 0
372 2 -0.3227682756348151 10.517063100128992 1.5236266139685652 0 0 0
381 1 -0.32274255988398 12.336929984667652 3.3188741252436116 0 0 0
374 4 3.3036002559101205 10.531867856347766 1.4818782691052053 0 0 0
383 1 1.4120690473957187 12.392153971508193 1.4775622452995352 0 0 0
385 4 3.2626242949505517 12.351608415323003 3.2663470250631153 0 0 0
394 2 -0.39228107339540624 15.956581706920817 3.3242714116780583 0 0 0
380 2 -0.3631167774535357 14.151544146798916 1.53913453195326 0 0 0
384 1 3.251477196085141 14.133245615414733 1.494439319256867 0 0 0
396 2 3.3047851304467906 15.974503741537408 3.218705817301243 0 0 0
395 4 1.4290152360804642 15.96550221259634 1.5636709824815251 0 0 0
386 4 1.4567414121153737 14.136360339551848 3.2970731198970493 0 0 0
561 1 -0.3724132201919833 17.786174652680398 1.5037870722382631 0 0 0
570 5 -0.2899057136414886 19.543912699287954 3.2903957955904732 0 0 0
574 4 3.260719161775187 19.543900861380997 3.309374186457282 0 0 0
564 4 1.457399026419069 17.740871733910904 3.2922948817424547 0 0 0
572 1 1.4634049172593282 19.495220989071196 1.4749994588522675 0 0 0
563 1 3.3071219927478737 17.792036416836453 1.5096648134885338 0 0 0
575 1 1.4773991748525126 21.317382204324993 3.2987054467549175 0 0 0
569 2 -0.3058042274098051 21.31161064371738 1.5023339801882452 0 0 0
573 4 3.2625320298320997 21.312690232477834 1.5115874338391901 0 0 0
379 3 -2.040412321974435 12.311006307997747 1.5946905916395935 0 0 0
375 4 1.4642698674113068 10.558400911495127 3.2373600510339107 0 0 0
356 3 3.2519924315908075 14.2696228038832 -2.0807122416038903 0 0 0
409 5 -0.3583795918562894 12.406536992371132 6.873027466717221 0 0 0
411 2 1.414812147749389 12.329327872686497 5.096596271717133 0 0 0
413 5 3.2882843042243772 12.325721637710727 6.848111316755643 0 0 0
408 2 -0.3251013250640697 14.136820219525278 5.085553103422527 0 0 0
422 5 -0.31868616793513627 15.943915895433351 6.881973011419465 0 0 0
403 3 1.3508027110366714 10.508378596803617 6.838325562103225 0 0 0
402 5 3.2556987330995235 10.561997602573408 5.030331985145843 0 0 0
414 4 1.4798850767942604 14.149109953227054 6.856558329085479 0 0 0
423 4 1.487489867812781 15.953184302277561 5.043091145605901 0 0 0
412 4 3.2790028309370736 14.1423577210697 5.064420046609367 0 0 0
424 1 3.2567672596666557 15.962520502268422 6.923079805873634 0 0 0
582 1 -0.2998024112446044 17.773350678186326 5.112609390461825 0 0 0
591 1 -0.2742548312890337 19.533489275459296 6.891349207675002 0 0 0
609 2 3.2413208067547443 21.391640183657817 8.692130268745004 0 0 0
585 4 1.5037607102920765 17.757471603560003 6.868091755525779 0 0 0
584 5 3.3095072349653445 17.728846623713252 5.061159168790112 0 0 0
595 5 3.2298587456836096 19.62513003862237 6.914359425534579 0 0 0
593 2 1.4645299295102445 19.57766853297938 5.109468340131638 0 0 0
590 4 -0.32141007037195846 21.36140339973236 5.118061266732175 0 0 0
606 5 -2.0866247778182263 19.598969007545385 8.659002816449709 1 0 0
589 2 -2.0898380161231955 19.525159790379664 5.131813646535333 1 0 0
596 1 1.452725266815954 21.364484178851903 6.904413010168317 0 0 0
594 1 3.2825480324674126 21.33916006211092 5.088970301010138 0 0 0
428 3 -0.3235262558799454 10.508429067210095 8.746608011680353 0 0 0
429 3 3.24851278201485 10.583781183524328 8.716511749735028 0 0 0
433 5 1.4426583921044729 12.377119421796156 8.70595577404602 0 0 0
432 1 -0.32568108671874785 14.150979092915833 8.703172498104223 0 0 0
607 4 -0.28340552340695574 21.388836491111054 8.675687629597846 0 0 0
439 3 1.4897162760189258 15.919283465371576 8.707788282484573 0 0 0
434 1 3.233403813328183 14.120869175474155 8.688467635920274 0 0 0
438 3 -2.047691461613946 15.948825414088812 8.800162752906047 0 0 0
454 4 3.2338509562025406 15.93108758490481 10.488782254500304 0 0 0
617 5 -0.22137514511779063 19.61185905710424 10.495204607988862 0 0 0
603 5 -0.25728972059541727 17.80040278339879 8.71511676035466 0 0 0
619 3 3.1947478013070376 19.605553676855745 10.40875969935533 0 0 0
608 1 1.4870632106973616 19.569871435410974 8.680758360274123 0 0 0
604 2 3.238143409181652 17.752800872108565 8.707385467471008 0 0 0
446 3 -0.2727993959180355 12.253796916654093 10.568896644721669 0 0 0
651 5 3.3035468616901076 21.352381974379142 16.012021671767062 0 0 0
467 2 1.487140619884261 12.301816843284664 12.332579834773133 0 0 0
448 2 3.2054825269956657 12.347651700140155 10.50218189961391 0 0 0
443 2 1.4960634919274307 10.528485417403086 10.55136376980412 0 0 0
458 5 3.332071336499049 10.554903848841006 12.316945664305049 0 0 0
464 3 -0.34440920392590746 14.123026901507984 12.454424755282403 0 0 0
650 1 1.4467473821577685 19.62044479569263 15.946665972873008 0 0 0
638 5 1.5110910925178398 21.376858368178663 14.150937410969979 0 0 0
479 5 1.503553650172731 15.939509879157887 12.396058281501743 0 0 0
468 3 3.2713482649885766 14.066256775741506 12.314476899142024 0 0 0
459 5 1.4896723027549579 10.53161114733123 14.13516462751442 0 0 0
624 3 -0.29342167645622796 17.796617079849263 12.251764824464798 0 0 0
635 3 1.562698643876728 19.595371134262294 12.350900630268354 0 0 0
626 3 3.1673945108849564 17.758396691255687 12.367184722513317 0 0 0
447 3 -2.0074120585958326 14.096407016375732 10.533503652728124 1 0 0
637 2 3.2628024205575192 19.583039938509575 14.170095210730878 0 0 0
632 3 -0.33062041722573327 21.37302810255725 12.348490375909456 0 0 0
649 3 -0.3762773160151336 21.41409632489924 15.984734606565468 0 0 0
636 1 3.2623618875799747 21.367394758246252 12.384888417498848 0 0 0
627 2 1.4469247421389662 17.825338353096694 14.132165120803037 0 0 0
645 4 -0.32561263727156065 17.800967930637405 16.003411436043187 0 0 0
465 3 -0.3950053709171703 12.254122577214433 14.115215881775274 0 0 0
489 3 1.4871692442994442 12.268224443998081 16.014641195009503 0 0 0
469 5 3.4271429194160894 12.303743419108631 14.174997503751454 0 0 0
646 5 3.1433452654730205 17.857679677922086 15.930418997317208 0 0 0
488 5 -0.3818585437712613 14.164373977875712 15.849696546181844 0 0 0
478 3 -0.40963014214207766 16.077122748378585 14.108538185294046 0 0 0
480 3 3.2447467310924627 15.969544338181498 14.236511252967734 0 0 0
490 3 3.239217998706741 14.100856034175454 16.01222255511715 0 0 0
470 3 1.5169548865375084 14.019358411490128 14.13720385363662 0 0 0
495 3 1.3770164767317434 15.984831739019738 15.895860072262565 0 0 0
633 5 -0.3508182085581408 19.540381556490747 14.150981483236029 0 0 0
620 4 1.5115176041819856 21.440217561255977 10.512522717256564 0 0 0
614 2 1.4944414188667916 17.757277435416487 10.504728326880015 0 0 0
453 2 -0.25742600256445813 15.987992287815258 10.523463761971682 0 0 0
449 5 1.3975504347266772 14.116808482319868 10.544876273014832 0 0 0
502 5 -0.3194910477627518 12.31115435134021 17.719726713997566 0 0 0
669 4 1.4460623536826538 17.73839337809702 21.33089754209832 0 0 0
523 2 1.481056646740833 12.33579199690093 19.51765239026564 0 0 0
504 2 3.2359089785965947 12.30968198368903 17.747223918600305 0 0 0
679 4 3.292691080937129 19.561377663678154 21.32754768638246 0 0 0
514 4 3.2317787484076117 10.50544953937403 19.522392236627677 0 0 0
509 2 -0.3558278070093356 15.964819895921751 17.71891823039384 0 0 0
520 2 -0.35832003040220706 14.170887928291295 19.507780227018635 0 0 0
505 5 1.4258696359897682 14.142803571087542 17.78709011026983 0 0 0
535 4 1.460654638159671 16.010154173077485 19.49209359180197 0 0 0
510 5 3.2053548906081333 15.99485950598437 17.68405259533628 0 0 0
524 2 3.2814549902105954 14.125905376072316 19.49518052747562 0 0 0
659 2 -0.3462629442376867 19.59450237157823 17.72163699380182 0 0 0
666 4 -0.3783605934140456 17.768151653616993 19.47736953235618 0 0 0
656 1 1.4782093226915698 17.806537675199205 17.734967913232783 0 0 0
677 5 1.4410234554373824 19.517551639203415 19.525220369624694 0 0 0
661 2 3.280840547722986 19.541358276993478 17.761110402633953 0 0 0
668 2 3.2840633861922734 17.778578958350035 19.51001705854386 0 0 0
675 1 -0.3403317149025432 19.559595180129108 21.330480986961092 0 0 0
674 2 -0.33881157370859294 21.3254610743584 19.525104098993413 0 0 0
526 3 1.4913219600706795 14.182825357513753 21.213811968044894 0 0 0
662 3 1.442134807786712 21.311657579276538 17.747473183362402 0 0 0
678 3 3.4037266115091906 21.329942266988223 19.45567346549114 0 0 0
680 5 1.4461463131367103 21.302732377219126 21.351331747582382 0 0 0
521 5 -0.3539485752768824 12.340312238580506 21.28866166647099 0 0 0
525 2 3.268028132275604 12.374410004241962 21.314106225554845 0 0 0
515 5 1.4845062904304607 10.524563823476903 21.304353824952777 0 0 0
534 5 -0.434631539126042 15.974849648318646 21.305577555926522 0 0 0
536 2 3.263364346741607 15.955494362837806 21.276245116793493 0 0 0
367 1 1.418114450703279 15.928838744411141 23.07879291008374 0 0 -1
12 2 5.072135084964858 -0.24903798730993257 -0.24323667731544596 0 0 0
11 4 6.890316578779175 -2.0654414991096237 -0.27808928501301367 0 0 0
10 4 6.939591812077309 -0.2289017847112901 -2.056282274905319 0 0 0
14 4 8.705674134358834 -0.2574308607425781 -0.27024018570736597 0 0 0
27 1 8.705149468661677 1.5649669376577784 -2.0855515933713233 0 0 0
13 4 8.700997390431592 -2.070421805501828 -2.043065540193577 0 0 0
25 1 6.8847288358309155 1.5024529079709859 -0.24759542068665288 0 0 0
26 5 5.1238772682595135 3.2613767513638354 -0.19177691812649444 0 0 0
23 4 5.056295258488994 1.4740915730621866 -2.0669997704112157 0 0 0
9 4 5.101881492146244 -2.0238396866449535 -2.0806674016310107 0 0 0
28 3 8.652794026422391 3.274515353534909 -0.320080987949649 0 0 0
208 5 5.043339395148964 6.978345814324395 -0.2561830646336834 0 0 0
207 3 6.888196270513451 5.208628593693944 -0.2215278124303471 0 0 0
210 1 8.666604574723081 6.89538885230928 -0.23960410970938054 0 0 0
884 1 10.441019890238671 5.071702010586825 -0.2621197227221279 0 0 0
897 5 10.468280425385123 8.673769378788155 -0.22817977033940814 0 0 0
883 4 10.459544722028145 6.871403601919202 -2.0417599168006744 0 0 0
216 4 6.862747917281091 8.699794930249015 -0.26057141461214783 0 0 0
217 5 8.626040369139817 8.640829492219813 -2.0432565400949305 0 0 0
716 1 10.498258586682397 -2.0828585203271066 3.311042730485347 0 0 0
238 1 8.704531411956033 8.696176349533024 1.485339794680648 0 0 0
39 4 6.89983079922284 -2.0268809987219605 3.314037070268361 0 0 0
38 1 6.855479330514908 -0.24830067346559986 1.507917679771111 0 0 0
40 4 5.0543900544077855 -0.28202433549773603 3.307716384604057 0 0 0
37 5 5.115025178292923 -2.0602876488603963 1.530261549003624 0 0 0
42 1 8.744355945880468 -0.2816241475800134 3.3248783824098123 0 0 0
41 4 8.688291978518418 -2.0506692996373714 1.5046649973672128 0 0 0
53 4 6.894372170743231 1.4642701439613401 3.3087371578428018 0 0 0
51 1 5.063779914817056 1.5019881870785654 1.5139035905703857 0 0 0
52 4 6.931751360524521 3.294034241310556 1.5537873056612839 0 0 0
54 3 5.040815627385393 3.268869872378379 3.191657332436307 0 0 0
55 5 8.682569158253559 1.4546463456750136 1.5560080978530424 0 0 0
56 4 8.695812679417662 3.2956429900385356 3.3305774974712934 0 0 0
229 5 5.06960525273786 6.978645233389684 3.341841052378043 0 0 0
226 5 5.060515647307492 5.166253657963014 1.554382229406891 0 0 0
228 2 6.853374242732585 5.150783838813109 3.2946068873442496 0 0 0
227 1 6.845295987215268 6.9476959864359475 1.5339659464997246 0 0 0
231 4 8.701986484426056 6.98606104605516 3.2689753248496447 0 0 0
230 5 8.69523534054992 5.186340767107427 1.5602483469423356 0 0 0
687 4 10.480941386921206 -0.26781452487047347 -2.054662526811973 0 0 0
237 1 6.852934890629928 8.694822797505193 3.25670177210481 0 0 0
236 1 5.035446521739238 8.720327699952612 1.5253993472505643 0 0 0
378 4 8.710216702139101 10.441450530808295 3.2697913724564986 0 0 0
206 2 6.8583430773766425 6.9111782390418295 -2.0865289236075313 0 0 1
209 5 8.647557120933108 5.150112602218713 -2.05386364535606 0 0 1
701 2 10.4880679291615 3.3401379464759176 -2.070595714986858 0 0 1
68 4 5.074996683735758 -0.25823243065965795 6.921195140027643 0 0 0
66 4 6.914454531170425 -0.3143915180175614 5.121857407739902 0 0 0
65 1 5.019167805487755 -2.023882615688218 5.112307036151696 0 0 0
67 1 6.842399364818986 -2.064286300742275 6.922628921201902 0 0 0
70 5 8.662300803204673 -0.2885134849580946 6.925938141002142 0 0 0
743 4 10.471760028337375 -0.28657163326594803 5.132190367238893 0 0 0
81 2 6.911878576226774 1.5463217934889488 6.926579897883809 0 0 0
79 4 5.104142591760758 1.4449507675667612 5.0975486675236406 0 0 0
82 3 5.092953692195521 3.2305310203484514 6.89718684912582 0 0 0
80 5 6.7925481092675035 3.361259905713232 5.063750699365305 0 0 0
84 5 8.679812302005102 3.3960715764830494 6.867799983265214 0 0 0
83 4 8.678104211830533 1.538831026287765 5.126111754268899 0 0 0
758 2 10.493698239125532 1.5633936530937544 6.920477908378294 0 0 0
270 3 8.611893960348393 8.677725989474656 8.845149813018118 0 0 0
247 3 4.950570107590925 5.124793012510519 5.034647859975505 0 0 0
250 3 4.936872285227859 6.9213403878830455 6.806176525918167 0 0 0
249 3 6.805822718098809 5.218160373277053 6.884392348801828 0 0 0
248 3 6.941004097405814 6.930808757914873 5.027640515136083 0 0 0
251 3 8.69327471571484 5.121041223493961 4.990907738885882 0 0 0
252 3 8.743201763715973 6.81942570836965 6.902801346347299 0 0 0
257 3 5.079115029299974 8.80355053172324 5.0700714421567685 0 0 0
258 5 6.935552596497299 8.686708105581909 6.911203274967647 0 0 0
269 3 5.089658593581851 8.748821701296832 8.648081541789857 0 0 0
266 3 8.718344770349615 5.144895179745898 8.761373972267647 0 0 0
259 2 8.694321218472343 8.735133987602199 5.070658447716289 0 0 0
90 1 6.894473677994118 -0.2605768677510533 8.700975151203178 0 0 0
89 1 5.112184281667998 -2.027205086862951 8.728145268084132 0 0 0
939 3 10.409000656423018 8.777906282139266 6.865404820487982 0 0 0
771 4 10.489987491512899 -0.29366750902872724 8.71582714443401 0 0 0
96 5 5.148410929639319 1.5495590376768298 8.732231633703046 0 0 0
97 3 6.971534818290685 3.323749947708042 8.761333801570578 0 0 0
98 3 8.671290260925154 1.4552857232459393 8.759839319347057 0 0 0
404 4 6.8810087864151805 10.499162567407165 5.030872046940807 0 0 0
744 2 10.461482381092342 -2.086770400396123 6.9384561550242125 0 1 0
264 3 5.118835705513756 4.9866482045295655 8.752841145019733 0 0 0
265 3 6.819576916871615 6.85900621464355 8.769835895019828 0 0 0
69 2 8.704894997524148 -2.0652878398718677 5.146313100234077 0 0 0
1114 3 10.425876548804757 10.404396761648016 8.73663752622305 0 0 0
122 1 6.915929599533157 -0.23260674127452793 12.352612738473459 0 0 0
785 1 10.47146519058817 -2.0447030614388653 10.530804091863473 0 0 0
104 4 5.110494595659736 -0.23110545366014318 10.53083065288808 0 0 0
276 3 5.047008842524328 6.810078559864976 10.609682592227509 0 0 0
105 1 8.666344360851884 -0.26881203817063337 10.513121077375768 0 0 0
125 2 8.675593302568501 -2.031535841369749 12.311064383966176 0 0 0
110 2 6.912448691879853 1.49941955173707 10.54607996477456 0 0 0
136 5 6.884948138988161 3.301634320527991 12.349382483624955 0 0 0
135 2 5.096715709336074 1.5141202113787176 12.355032413235739 0 0 0
111 3 5.083110681299584 3.2529887828882886 10.630000456072956 0 0 0
139 4 8.718328965696095 1.5255720190295448 12.317232699539064 0 0 0
112 5 8.733078132129444 3.329824106277053 10.559001360190726 0 0 0
462 3 8.608832510222967 10.452927405428817 14.131154226241055 0 0 0
289 2 5.039466759842757 5.07856366569336 12.368268603547145 0 0 0
290 3 6.807117357138187 6.855228056550171 12.443899016793534 0 0 0
275 2 6.857157608823346 5.088407187392963 10.580962167562292 0 0 0
293 5 8.699413941344877 5.087705908466298 12.39228870676664 0 0 0
280 3 6.701371017847305 8.679004075682156 10.554229367098106 0 0 0
299 2 5.046784012280612 8.651243725214936 12.39155982323428 0 0 0
301 5 8.624999484064835 8.685312223321406 12.266020851970008 0 0 0
124 1 5.131225612519185 -0.2598743844212045 14.125865944954015 0 0 0
146 1 6.90848972558157 -0.25584132930518794 15.901450651092404 0 0 0
145 2 5.117043962474407 -2.007696521824872 15.9185387666916 0 0 0
123 5 6.92070568377592 -2.012291042638789 14.104035401183197 0 0 0
800 5 10.479522365010492 -2.0290266197167375 14.102356377974306 0 0 0
147 1 8.686003420890161 -2.035733192717813 15.885879157685663 0 0 0
827 4 10.49832012828041 -0.24564783113751928 15.906769922318787 0 0 0
126 2 8.701146420322393 -0.24647175095246054 14.122058944588556 0 0 0
152 1 5.12080071068429 1.5193046523744653 15.89089859261004 0 0 0
137 5 6.889184650255493 1.5094133800399725 14.169170127682488 0 0 0
138 2 5.080683762767664 3.2889068960222794 14.119856340127043 0 0 0
153 1 6.901078909456464 3.3162307054123064 15.901642791353556 0 0 0
312 1 8.681178741098913 8.6787906475625 15.896048526276012 0 0 0
154 2 8.704498494261326 1.5335518396226886 15.927516503806645 0 0 0
140 2 8.698811898365625 3.293408822392867 14.173600288225247 0 0 0
292 1 5.025743560810831 6.896265760438975 14.153484045360525 0 0 0
306 4 5.0773385214035365 5.097654146449128 15.952506935595036 0 0 0
291 3 6.823660293609728 5.0475761635539635 14.174803370923748 0 0 0
307 5 6.90125355489704 6.938820944048978 15.923715989083506 0 0 0
308 4 8.68872836175634 5.12618507394539 15.908875725982853 0 0 0
294 2 8.691705069662387 6.9359803288584985 14.107968529953135 0 0 0
486 3 6.868163645187866 10.336563733731959 15.982056661946093 0 0 0
461 3 5.1041922954534495 10.427063994540845 14.167802041544478 0 0 0
300 2 6.859253532130109 8.680095453371816 14.118052850937033 0 0 0
311 5 5.022302905573122 8.609821511953589 16.01005180958503 0 0 0