LAMMPS data file via write_data, version 2 Aug 2023, timestep = 8280, units = metal

1372 atoms
5 atom types

-2.0880411287608682 23.08804112876053 xlo xhi
-2.0880411287608682 23.08804112876053 ylo yhi
-2.0880411287608682 23.08804112876053 zlo zhi

Masses

1 58.933
2 58.69
3 51.96
4 55.847
5 54.94

Atoms # atomic

13 4 8.707787738711831 -2.06208588606286 -2.0516401624224745 0 1 0
8 2 1.4811771943565402 -0.24496836955034806 -0.2774506582074559 0 0 0
12 2 5.110208491759242 -0.25190606779791797 -0.29982072576631474 0 0 0
27 1 8.733487051311684 1.5215347382271023 -2.0466348048975447 0 0 0
56 3 8.723186961468606 3.2534121630855815 3.2826567434262874 0 0 0
14 5 8.698274284371722 -0.2586837516907045 -0.29692763205248623 0 0 0
18 2 -2.083618945795269 3.29480890267921 -0.27296696359494177 0 0 0
17 2 -0.309639823373554 1.5088479388747227 -0.30574930210141615 0 0 0
16 1 -0.30234222112975884 3.3001193221922396 -2.0797699927572695 0 0 0
22 5 1.4803017534980774 3.2629119575849828 -0.30386833263261037 0 0 0
21 1 3.2838047823487786 1.5281270110152256 -0.2963219642908858 0 0 0
19 2 1.4681059257200244 1.5044134441694057 -2.0712832596161084 0 0 0
24 4 6.905407972408474 3.2968998835460197 -2.0685590350238456 0 0 0
23 1 5.061476363088362 1.5220210640405036 -2.0639490033425614 0 0 0
25 2 6.894325269458596 1.517901372485946 -0.3089602911759227 0 0 0
26 4 5.079739211215629 3.319457138935157 -0.27795989073248417 0 0 0
28 2 8.659038478044113 3.300407163030095 -0.27960403758707897 0 0 0
30 3 -0.2625011871510791 -0.1769963214662169 1.539229122612409 0 0 0
31 5 -0.2771219995703132 -2.040373675877145 3.401039421804456 0 0 0
33 1 1.452024051227485 -2.041420622958215 1.538939215765488 0 0 0
36 5 1.5838884891890503 -0.26742112644813704 3.265557763415551 0 0 0
34 4 3.3057310532363213 -0.2910137736204895 1.4414285020542217 0 0 0
38 4 6.888807970770875 -0.24097721423736004 1.4923643964207354 0 0 0
40 3 5.054921528166755 -0.25502020933138964 3.291611690640022 0 0 0
42 1 8.64210689598243 -0.24927398859603336 3.341605263051325 0 0 0
41 4 8.686423282752072 -2.0711490941424815 1.4968108563510478 0 0 0
44 5 -0.3197194646961336 3.2534775514902092 1.5159969230018053 0 0 0
45 1 -0.2778914659151536 1.5048224967872919 3.333041177992813 0 0 0
47 1 1.5013070447585222 1.5347185080381422 1.4934242825882873 0 0 0
48 2 3.272623642686924 3.3024811097076157 1.5079342844191959 0 0 0
49 3 3.294345029927643 1.5583335565134344 3.2401694612712695 0 0 0
50 3 1.447603237429475 3.2946123065319464 3.3112358579865764 0 0 0
53 2 6.9043795102537535 1.5004465046466353 3.301250015121944 0 0 0
51 1 5.066194309371461 1.5201811748210237 1.4885611561956085 0 0 0
52 4 6.890073068323675 3.2749268726189253 1.4793839412915024 0 0 0
54 5 5.134590446582183 3.2670941222838152 3.255673115147731 0 0 0
55 1 8.691719230682418 1.5233728510040783 1.502773608820592 0 0 0
729 1 10.477835590194434 3.3099488661636847 1.4939235058672908 0 0 0
3 5 -0.26936474837131413 -2.0412140779103467 -0.28348955890321975 0 0 0
35 1 3.340829415412577 -2.0517551792088167 3.255472872397367 0 0 0
702 3 10.462712829477212 1.5605670519211767 -0.23638240471938415 0 0 0
11 1 6.858079127566326 -2.0440141659701574 -0.30691496481971503 0 1 0
7 4 3.3074758150524786 -2.075256789499832 -0.2915089351652195 0 1 0
715 4 10.49505892044142 -0.26721688066277405 1.531640929787053 0 0 0
716 4 10.48606993987993 -2.0481567058886188 3.2628777999284777 0 0 0
37 1 5.145901108671935 -2.0456900557259026 1.5281247920412975 0 1 0
5 2 1.491759894196148 -2.0726664122362366 -2.080474076774422 0 0 1
9 2 5.119704228025906 -2.0710326224503177 -2.0608992968404145 0 1 1
6 5 3.290820297820044 -0.2525031406275559 -2.0474916406882144 0 0 1
10 4 6.882553010068616 -0.24422036121730262 -2.0656432938459552 0 0 1
58 3 -0.3359729672903317 -0.21345411219235227 5.12944428539168 0 0 0
59 3 -0.3010314043523503 -2.08726376302363 6.803232567131038 0 0 0
89 1 5.134450745160765 -2.071847672785058 8.708640510276457 0 1 0
64 1 1.5355324118486038 -0.2847095600150029 6.912154702561504 0 0 0
62 2 3.3424191843047697 -0.30334293354809067 5.125124205748971 0 0 0
61 3 1.6169262532674034 -2.058455342662691 5.113968506608663 0 0 0
68 3 5.167398994089655 -0.3496093257925452 6.92463826249985 0 0 0
66 3 6.934958190585544 -0.28412881277009633 5.105569675610465 0 0 0
70 4 8.69023088209096 -0.2658181411107506 6.935822120853552 0 0 0
744 5 10.461588566631569 -2.0510237396025186 6.943021182923226 0 0 0
69 2 8.691200450716364 -2.0507485737992925 5.105342862126188 0 0 0
72 5 -0.32000365308371864 3.313989199321536 5.107916348217369 0 0 0
73 3 -0.356916665164481 1.514716042038386 6.987710200933078 0 0 0
98 4 8.678302471563793 1.5752533754052414 8.731328629237598 0 0 0
75 5 1.5060407819119053 1.4625839701291008 5.137817327529623 0 0 0
78 3 1.4754735700394588 3.3547712166503123 6.965447115512307 0 0 0
76 5 3.289806453471134 3.3410900526324085 5.161378308320238 0 0 0
77 5 3.261495796898817 1.4859793985787555 6.9563321140425725 0 0 0
81 2 6.8910899821571725 1.548438178727172 6.901045120745227 0 0 0
79 3 5.090441716728756 1.5149319885239894 5.176030755872975 0 0 0
82 2 5.101742775354473 3.3094889464657 6.9432980725952955 0 0 0
80 5 6.865774718861059 3.3036802247525863 5.108775363465444 0 0 0
84 5 8.71402123297694 3.387889388774505 6.881425581849625 0 0 0
83 3 8.712852060285952 1.523288601400952 5.11644553909825 0 0 0
86 5 -0.290539765996982 -0.3336053337618442 8.635145942160118 0 0 0
743 3 10.476508306679445 -0.29364894095592575 5.036498441650653 0 0 0
96 5 5.142891803268086 1.4929927198500776 8.738068235895343 0 0 0
109 2 1.5168467959879972 3.319588410882257 10.480321976484586 0 0 0
88 4 3.3021720358509894 -0.27815008323384766 8.750548779258612 0 0 0
100 5 -2.085060283075031 -0.40107690233723775 10.483738081736853 0 0 0
90 4 6.934057626502701 -0.2809599457362388 8.729250287800927 0 0 0
771 3 10.46952484422012 -0.2627338181559889 8.795632630170266 0 0 0
108 2 3.2961785872800533 1.545951434857929 10.492295378827897 0 0 0
97 3 6.865847791170252 3.3368997879761104 8.70037202660646 0 0 0
93 5 -0.34392238764848987 3.3241780628496143 8.763298340643376 0 0 0
94 1 1.4958956392767422 1.5225147144571374 8.709038674963933 0 0 0
95 5 3.2938542925946446 3.341950192066234 8.725367472019977 0 0 0
67 1 6.915524756399507 -2.076786642949653 6.9207802081911725 0 1 0
65 2 5.108257741082407 -2.063484145586557 5.101595252163657 0 1 0
103 1 6.919489575311087 -2.081169555057066 10.48970375891601 0 1 0
102 4 1.4846222815676626 -0.31039421751522356 10.484793108430011 0 0 0
104 1 5.1186111335275175 -0.28272284795696995 10.496784391833893 0 0 0
106 3 -0.292229446871095 1.4707024187973436 10.448162746670498 0 0 0
114 4 -0.28878194098260557 -0.34398791542835405 12.292747724980332 0 0 0
118 4 3.293943094240952 -0.29843477083486103 12.245227768082705 0 0 0
145 2 5.1123511327990965 -2.0764899214497525 15.895015406878898 0 1 0
122 5 6.910559105898071 -0.30497458486609785 12.196642691039127 0 0 0
119 5 3.3367155072487917 -2.068780261559887 14.060707137727965 0 1 0
154 2 8.716455182725227 1.4626140859460528 15.914384547663943 0 0 0
112 2 8.672217979073297 3.3328583610278457 10.506929694573916 0 0 0
105 1 8.697587204800472 -0.296055271315384 10.500354419514347 0 0 0
125 1 8.70882196964729 -2.0562335528818267 12.25426055159531 0 0 0
128 3 -0.3455589228279165 3.2674532494922 12.237576886363906 0 0 0
121 2 5.105511620972746 -2.0594141383194255 12.259145131824916 0 1 0
131 5 1.516515029384727 1.5426365337153936 12.269553874963377 0 0 0
132 2 3.3184091079957576 3.3329808894129296 12.265074115132203 0 0 0
136 2 6.882739058019287 3.3121950450828255 12.292534817451067 0 0 0
135 5 5.110059657870099 1.506929667496968 12.268804595031652 0 0 0
111 3 5.094676569200475 3.3568355679754633 10.5327959532463 0 0 0
110 1 6.90350105791711 1.5383877171010965 10.52060837878799 0 0 0
139 4 8.705967983345346 1.545142228352353 12.25940118068941 0 0 0
153 3 6.90687155886356 3.2741443138003565 15.894259082854376 0 0 0
137 4 6.89544893641973 1.4865620817120877 14.089818055397656 0 0 0
142 3 -0.4252990138124865 -0.3166428457218793 15.925702865463437 0 0 0
144 3 3.316936391063225 -0.3334310391719459 15.956133632647708 0 0 0
120 3 1.458630618359981 -0.3642679600060962 14.074933599792107 0 0 0
140 4 8.731594467482187 3.2425158217915233 14.137637665223703 0 0 0
124 2 5.101300487638988 -0.30349489646973166 14.099829472655054 0 0 0
146 2 6.891822484550655 -0.28320104211736974 15.894255627190557 0 0 0
123 4 6.8780757573208735 -2.047777129169665 14.073038184210631 0 0 0
147 3 8.658021540594872 -2.0360730273942136 15.87458010638073 0 0 0
138 2 5.086700190364705 3.2979598927912406 14.075399141646969 0 0 0
126 5 8.72839064812085 -0.2739782397555515 14.060308855397713 0 0 0
149 3 -0.3502826663963719 3.3700789678303567 15.924145737877218 0 0 0
129 5 -0.33987087642647756 1.5180961207637618 14.110566770821707 0 0 0
133 5 3.318239266264309 1.5129614379694625 14.06759781250036 0 0 0
134 5 1.5018876069091873 3.3177262634796807 14.11934732057837 0 0 0
150 3 1.5389517980952956 1.489274253714868 15.932340265670852 0 0 0
151 2 3.291624455282503 3.3209913107625404 15.888359859435278 0 0 0
152 5 5.064962491897329 1.4870928403661148 15.89748893023432 0 0 0
785 2 10.487485252626932 -2.0754497188226804 10.503997261420421 0 0 0
170 3 -0.20951209625872202 -0.2629653254512585 19.549638128313255 0 0 0
156 1 -2.070607458301883 -0.28778871350613366 17.759406235812072 0 0 0
169 2 -2.0561658867344597 -2.0745573722012827 19.53873361115159 0 0 0
158 2 1.4774326822263182 -0.2872587094386707 17.694401052392784 0 0 0
174 4 3.2501264227850775 -0.28217463426963224 19.48218237753994 0 0 0
159 4 6.886565480208186 -2.0804351975434114 17.723644056758925 0 0 0
160 4 5.120951099876936 -0.29663402894046037 17.75866957222581 0 0 0
178 2 6.924206791229548 -0.3130442197049345 19.53951629067493 0 0 0
161 3 8.68281076272058 -0.31105088443265294 17.759951398842762 0 0 0
162 5 -0.34214878569824764 1.5091426115099522 17.69136218421557 0 0 0
184 4 -0.29390092964430775 3.3107147383203612 19.47601808044465 0 0 0
165 5 1.5532785257680972 3.3734342808186577 17.699406934388666 0 0 0
187 2 1.4976602649729807 1.5130581690001916 19.473040795791082 0 0 0
164 2 3.270357049688343 1.5144421924081488 17.703609148043537 0 0 0
188 3 3.2999032227413934 3.336148510890152 19.552064523626154 0 0 0
192 5 6.894703936926031 3.335870090655004 19.57215529464833 0 0 0
167 3 4.991495197877661 3.314291154331059 17.69747944804742 0 0 0
191 4 5.09997232262579 1.5203401054625523 19.507621330501014 0 0 0
166 5 6.918438441184056 1.4886658226138711 17.71797743783379 0 0 0
195 4 8.725600368739157 1.5462118366153794 19.52239587051039 0 0 0
168 5 8.756264971459021 3.3072169943411556 17.673563714969468 0 0 0
193 4 6.901209961008552 1.5189050203052208 21.317529454449623 0 0 0
175 4 3.2537337796086105 -2.034124442991483 21.311259412159934 0 0 0
176 1 1.4865977520378402 -0.2558251614992221 21.303244847831802 0 0 0
179 3 6.9081333539480845 -2.078869341708316 21.300947522714882 0 1 0
181 2 8.735368762427635 -2.046608504435021 19.55763914377505 0 1 0
196 1 8.71424819199884 3.334682744503459 21.31542766635248 0 0 0
180 4 5.100646777037246 -0.3002679098044947 21.279162503357327 0 0 0
194 2 5.097604977742374 3.3302924627356494 21.315007331754654 0 0 0
182 5 8.762089596842019 -0.256078684323826 21.321237675928906 0 0 0
185 1 -0.2723205555144527 1.5402706284275263 21.292739562444325 0 0 0
189 4 3.3035917819399936 1.486953974043305 21.290457969197355 0 0 0
20 5 3.3057901482567913 3.2840944777202985 23.05647399928451 0 0 0
190 5 1.4623243085596442 3.299592226409237 21.302632082140885 0 0 0
2 4 -0.29138882537587485 -0.2782185857145789 23.07755154993954 0 0 -1
701 5 10.443358207448043 3.3581228272970316 23.083252681224316 0 0 -1
15 5 -2.081806093436242 1.5506780321912115 23.04146722837462 1 0 -1
199 1 -0.2812553678343533 5.076556887949749 -0.2855892837092163 0 0 0
198 3 -0.23680110091717907 6.82978511440194 -2.066954186937949 0 0 0
200 2 -2.0537591140388693 6.904631081908084 -0.2759872554800686 0 0 0
204 2 1.5001118146466776 6.898292936371939 -0.3025772358174194 0 0 0
203 3 3.2695697187651223 5.111275748550597 -0.28391595585780494 0 0 0
201 2 1.488877510751996 5.087002434040483 -2.0770229729797935 0 0 0
350 3 8.698875234950881 10.480930964039477 -0.21740028579184476 0 0 0
208 3 5.171401945402935 6.845057752963936 -0.34769601800477634 0 0 0
207 1 6.9384959980023 5.136270956037358 -0.2796075749543557 0 0 0
221 3 -2.0615743725038627 6.922629364090179 3.3325064898304357 1 0 0
883 4 10.45805177072404 6.906111575903886 -2.0357292469247037 0 0 0
210 4 8.662280547795245 6.921942425878617 -0.27009866158672335 0 0 0
884 4 10.435617452471744 5.090980564396031 -0.2637663160590765 0 0 0
212 3 -0.28028524676607813 8.66629046063179 -0.34076640576527745 0 0 0
238 1 8.648113139533287 8.699806885143648 1.549986483529086 0 0 0
214 3 3.395830058782008 8.695483181302782 -0.3171722039070611 0 0 0
918 2 10.448331635665026 8.713369813014618 3.3008850609087332 0 0 0
218 3 -2.0878475465905133 5.098078849814581 1.4731233784099673 1 0 0
216 5 6.858354552175574 8.733048955141893 -0.2957166685667187 0 0 0
348 2 6.89463238077495 10.481979483487192 -2.058263471011923 0 0 0
904 3 10.430880290171158 6.933076499128875 1.5927739262833358 0 0 0
236 4 5.101122145432915 8.70369329161966 1.5513816451743336 0 0 0
897 2 10.430359009936508 8.69021802130697 -0.23130143183305665 0 0 0
219 3 -0.26050044465014677 6.88005216041238 1.4778122753441694 0 0 0
220 2 -0.30809006645945314 5.115986628163788 3.3173131917597205 0 0 0
224 3 3.302733959958035 5.094039279276549 3.342430352743737 0 0 0
223 5 3.271519095545353 6.912158089755092 1.5427775762640097 0 0 0
225 3 1.477052496399024 6.897049506478199 3.3992262876011075 0 0 0
222 3 1.4745201737065292 5.071239021134215 1.5004388469796273 0 0 0
226 4 5.101844716602832 5.119453296411029 1.5253803030004454 0 0 0
227 5 6.894767560668408 6.892708586052956 1.5856556114629234 0 0 0
228 1 6.87870244747294 5.107917390796473 3.3209752494159344 0 0 0
229 1 5.074272166375043 6.911467585811411 3.340862638215754 0 0 0
231 1 8.663337270872463 6.921014475704628 3.318499949153473 0 0 0
230 5 8.655804438550089 5.072203464899638 1.5724126536924226 0 0 0
237 2 6.878920980612456 8.690854448613255 3.3330431063843435 0 0 0
232 2 -2.0317111764500835 8.723836703579153 1.5190277313636524 0 0 0
373 3 -2.067645666799378 10.467099023169178 3.358855381011125 0 0 0
233 5 -0.2599248199325713 8.768145143660533 3.350815828317742 0 0 0
235 2 3.2917934579159547 8.71107946748492 3.3305421260312813 0 0 0
234 3 1.5567313939113963 8.7370135698121 1.513164676839572 0 0 0
1030 4 10.497203650799008 10.495175066177055 -2.036661007004822 0 0 0
345 3 -2.003615632690064 10.490450094984054 -0.29340946525209083 1 0 0
217 1 8.695353382953792 8.718322847842863 -2.066744618978884 0 0 1
197 5 -2.0671492749933096 5.073904477349158 -2.0550671941467016 0 0 1
240 5 -0.27115630416224734 6.931937667427321 5.162553755950627 0 0 0
241 3 -0.3053346766055122 5.195000202872684 7.002345699621802 0 0 0
270 4 8.707630160567104 8.601504211683258 8.6975695327379 0 0 0
242 2 -2.087110352505084 6.9296414761277365 6.9391503121415115 0 0 0
243 2 1.4734496812212634 5.124890358742127 5.137452728125969 0 0 0
246 1 1.5146820252024797 6.935443138849743 6.955345629862533 0 0 0
244 5 3.2861455280871663 6.962541345103302 5.155364585601986 0 0 0
245 4 3.2915916507357372 5.142179920052653 6.942642589132531 0 0 0
247 4 5.104816074369196 5.108723499059722 5.113867411524729 0 0 0
250 4 5.119197330364767 6.925564505923187 6.923184975688572 0 0 0
248 1 6.88042892321619 6.89874251661675 5.093852169307562 0 0 0
249 2 6.84152351188981 5.097329556573247 6.92806077877859 0 0 0
251 3 8.669049567134607 5.140864217966033 4.986717335489882 0 0 0
252 3 8.60099457807912 6.782057252760115 6.925000901286126 0 0 0
254 4 -0.29447563276095745 8.705270826859612 6.924589900409299 0 0 0
253 2 -2.0810001402629053 8.716309006428798 5.120516940795697 0 0 0
445 3 8.787874332195688 10.45746949367968 10.498462408038082 0 0 0
255 1 1.509392202490403 8.710306187257235 5.111819484791512 0 0 0
256 1 3.290192359218964 8.685110341444764 6.933991436869445 0 0 0
257 2 5.121071761416289 8.689386710524445 5.09502603883409 0 0 0
258 1 6.900007060255878 8.695803503957004 6.902639191903082 0 0 0
405 3 5.120067603750926 10.395856287741289 6.880711205643198 0 0 0
259 3 8.590987810014967 8.654324920814775 5.0966087983199335 0 0 0
406 2 8.644722550872034 10.480516387771846 6.857497134639792 0 0 0
939 3 10.437476809085679 8.574154041964013 6.941252183765971 0 0 0
1114 5 10.436572908777118 10.490672406943936 8.631263395388915 0 0 0
261 1 -0.3085919296816874 6.936929303657861 8.729372171456701 0 0 0
1086 3 10.44101211864369 10.421419253529441 5.161940541358118 0 0 0
444 2 5.111573318382013 10.461305192593194 10.491679150752619 0 0 0
428 2 -0.29323338195119353 10.491125287917306 8.713357892704568 0 0 0
263 5 3.32378862500699 6.950687366711132 8.758635013001388 0 0 0
262 2 1.4818768996545435 5.157390885382826 8.76346605887263 0 0 0
273 2 3.2967138127536586 5.10976801531954 10.498945387792558 0 0 0
276 1 5.089972129860407 6.910567253070214 10.46818696719817 0 0 0
264 1 5.092392544825039 5.110077997057652 8.730284969687203 0 0 0
265 1 6.869114727370905 6.882404448839911 8.715012438435448 0 0 0
956 3 10.489683854921303 5.053333552431197 10.467602339912006 0 0 0
266 4 8.699165714040701 5.104172411957932 8.747838134419805 0 0 0
278 2 -0.31148830869817823 8.742375589164388 10.47727266549594 0 0 0
429 1 3.3486657315133375 10.453465759714748 8.692031988295321 0 0 0
268 2 1.5080769443259205 8.704120789748064 8.727889191830439 0 0 0
430 3 6.953917702300111 10.430398625154444 8.67728862591749 0 0 0
280 5 6.902285312774659 8.597024085312817 10.479081083524743 0 0 0
269 1 5.118574184889093 8.712304685368196 8.720699142978907 0 0 0
401 3 -2.0853495868646803 10.478300260318512 6.930698473307616 0 0 0
403 4 1.5245896156150907 10.472770832856698 6.939402653863148 0 0 0
402 4 3.3100820815412475 10.47624339016258 5.122364752810628 0 0 0
404 2 6.896320064179264 10.485051550096513 5.103548235966607 0 0 0
279 1 3.338450028088609 8.747407721632941 10.492283564119724 0 0 0
282 3 -0.39838178417377057 7.07686288478987 12.34166644355802 0 0 0
285 3 1.517331502534154 5.044811233181069 12.231774209020147 0 0 0
286 3 3.3202518111840407 6.901902047360353 12.221567783402623 0 0 0
289 3 5.099013766216417 5.149522852945021 12.35388699848526 0 0 0
290 3 6.9893832276591334 6.928736796840136 12.414268587487841 0 0 0
275 4 6.896054526896953 5.157887406386852 10.537266217234652 0 0 0
277 1 8.751935626522895 6.894472738741053 10.514900998229791 0 0 0
293 3 8.694903024785265 5.045339978400155 12.309492693687025 0 0 0
485 5 3.250906011884273 10.47677791067093 15.97833452961015 0 0 0
311 5 5.107993938656943 8.672478000948665 15.928951630323915 0 0 0
312 5 8.694395001438993 8.711252616104941 15.874169104243405 0 0 0
967 5 10.473318483499424 6.877887110980186 12.350659775677952 0 0 0
298 5 3.305773578137613 8.73284354756397 14.112217759698641 0 0 0
297 3 1.5545754295625138 8.800687348721024 12.267361034728797 0 0 0
299 5 5.104657128707141 8.642296430118877 12.281346185565301 0 0 0
460 5 6.913253718207449 10.46855842166955 12.296026835819436 0 0 0
301 4 8.75579486497835 8.703133807025424 12.309025579979696 0 0 0
300 1 6.904842553593244 8.722211493214948 14.097868995748597 0 0 0
283 3 -0.38703560341579146 5.104418426098637 14.003651703955816 0 0 0
303 5 -0.30299313027704367 6.921717255195604 15.864884469483394 0 0 0
288 5 1.4747874148470974 6.938003668587979 14.031546153867229 0 0 0
304 1 1.4908738499171093 5.107496290019275 15.878739866618517 0 0 0
287 3 3.260830198329449 5.0619571097993585 14.114997135228633 0 0 0
305 5 3.248631902222642 6.91485456759482 15.90346019686175 0 0 0
291 3 6.937796420402607 5.049230068884538 14.083618064884455 0 0 0
292 1 5.078772596917432 6.949414477094896 14.118606676855142 0 0 0
306 5 5.070645034604859 5.117563715967294 15.823946597307934 0 0 0
307 5 6.9076894907290765 6.904413546902302 15.807289318600283 0 0 0
308 4 8.754094548775972 5.096438900044251 15.884802660353214 0 0 0
294 1 8.734009486815232 6.922961701270804 14.123411790579052 0 0 0
310 1 1.5073720239756747 8.690593366579307 15.881375788580112 0 0 0
484 3 -0.2435444186622913 10.487048570458057 15.956895053817771 0 0 0
296 1 -0.3286169554787213 8.735913241217936 14.126008414193267 0 0 0
271 5 -0.35614324065866293 5.170603913900391 10.523146393861206 0 0 0
274 3 1.4447565505407887 6.972677432034439 10.52092674721347 0 0 0
313 2 -0.3001082127465484 5.127673738944194 17.704468922127635 0 0 0
324 2 -0.3031338568167006 6.871816358692929 19.506476455789475 0 0 0
316 4 1.4950635918983528 6.88206897120019 17.701204494208007 0 0 0
327 1 1.5053839380472709 5.121652928752929 19.507514289743796 0 0 0
315 2 3.296320414984062 5.132153944234648 17.68886555707226 0 0 0
328 2 3.2884195027937806 6.887547838410101 19.49976512715318 0 0 0
318 2 5.088279364058511 6.875262723368899 17.690062546127617 0 0 0
331 4 5.08993783759532 5.150927646495338 19.532322925502847 0 0 0
317 3 6.864326280053534 5.119825465299415 17.704557654705695 0 0 0
332 2 6.910796366075179 6.883309809215727 19.463621966953106 0 0 0
319 3 8.711969057428055 6.846556668829447 17.751744766500664 0 0 0
335 4 8.722329275294081 5.090041594531595 19.519717493852806 0 0 0
518 5 8.698685253691869 10.493491075900817 21.328986923519395 0 0 0
320 4 -0.26853363422083015 8.673034221104112 17.70167447900696 0 0 0
337 5 -2.0857129474063134 8.66551046216095 19.43643344283344 0 0 0
514 5 3.2992619928329754 10.45479000053093 19.439385550729494 0 0 0
339 4 1.518638701328516 8.675993835971532 19.508562977225456 0 0 0
321 1 3.2928256007876264 8.671473005243659 17.676323882650887 0 0 0
499 1 1.5123511991936325 10.499376039865993 17.698674335061657 0 0 0
341 4 5.104823314142579 8.635075469605601 19.43990699249782 0 0 0
322 2 6.907068707662884 8.641705546209618 17.672403876706014 0 0 0
500 1 5.078215632847418 10.480287320021064 17.672432043689373 0 0 0
343 4 8.705178679089924 8.704134396595327 19.48491219360105 0 0 0
325 5 -0.3058969687387904 5.0966430741402124 21.272171699569025 0 0 0
501 1 8.726054356903898 10.474071488247514 17.66486156990653 0 0 0
330 1 1.5016975981104006 6.871212794290403 21.270000845093463 0 0 0
329 1 3.2675925346319006 5.103088282857734 21.302375565132177 0 0 0
206 2 6.935288394637651 6.897596970137962 23.086974519723043 0 0 0
333 1 6.9286726786083275 5.127461747976649 21.292853645192114 0 0 0
334 5 5.110073906705804 6.921306038468225 21.334440630799392 0 0 0
517 3 5.1492647169867345 10.421641602332686 21.330075572034744 0 0 0
336 5 8.754105398748186 6.90032670045817 21.299664603063626 0 0 0
209 1 8.662358391879721 5.100654907664738 23.07508772776317 0 0 0
213 3 1.543192204682764 8.724539474506741 23.04055036028157 0 0 0
338 5 -0.2826680212587311 8.691106308641418 21.326031080417387 0 0 0
340 2 3.303068493701322 8.69528431220705 21.28987600403628 0 0 0
342 4 6.93425075219719 8.678131780750228 21.302152664031738 0 0 0
1005 3 10.496331797934618 8.712524374798985 17.715097626607747 0 0 0
516 5 6.89337553371807 10.469363957717553 19.38137946286116 0 0 0
1023 1 10.495841042452664 8.72771409019665 21.304159794121563 0 0 0
314 1 -2.0830794169896123 6.916498233705173 17.690290764913897 1 0 0
202 5 3.2435326769561947 6.878169608634261 23.045569797242397 0 0 -1
205 4 5.125503266625493 5.083947903631275 23.06456753884755 0 0 -1
215 1 5.110430974922774 8.697248063081801 23.084168313969798 0 0 -1
353 3 -0.24032591377458662 12.445946785097508 -0.3525382472501305 0 0 0
375 2 1.543486359746731 10.51112347768054 3.3393045232934147 0 0 0
357 1 3.3248352165637565 12.310447857322934 -0.2964302903189395 0 0 0
399 2 8.704283448357543 15.936127884766341 1.4978086162893087 0 0 0
355 1 1.5298579327145048 12.327942167221297 -2.079405853086905 0 0 0
361 2 6.9072357053232665 12.274501639383576 -0.2601072507876127 0 0 0
359 4 5.151510875549779 12.302898545076454 -2.077239275767926 0 0 0
363 3 8.635809938444861 12.237845090571021 -2.0208716088893492 0 0 0
393 5 -2.0654103140956295 15.93461194501299 1.567326822074953 1 0 0
366 5 -0.2863779055938434 15.88561883782461 -0.2860746139912685 0 0 0
372 3 -0.2428900418407174 10.519004488075234 1.5343613280712463 0 0 0
358 2 1.5250778959753606 14.118346928469613 -0.30936855446736505 0 0 0
368 4 3.3268267687500015 15.943742442507643 -0.2787253331700958 0 0 0
356 5 3.315324107006154 14.104094330741265 -2.0306771173376674 0 0 0
349 1 5.1214901737242915 10.511541023171421 -0.28270390412838137 0 0 0
362 1 5.135730101788636 14.094164371307068 -0.2966951829074073 0 0 0
370 4 6.905549500623502 15.930369104189731 -0.2560729089678813 0 0 0
346 5 3.3416132491262514 10.515634690017286 -2.058758313042069 0 0 0
1051 2 10.484259770065076 15.910130505349668 -0.27172193467096134 0 0 0
364 3 8.702061010200206 14.106788357598596 -0.19142567838648897 0 0 0
379 5 -2.041385350181098 12.337289369077734 1.5404894104163898 0 0 0
381 3 -0.22675949501987017 12.297212399855777 3.338327752669252 0 0 0
374 5 3.330422334798455 10.547913063971837 1.4931556354607927 0 0 0
383 4 1.5235757292690393 12.357921105890782 1.5144802376647548 0 0 0
385 3 3.3228377490903416 12.32754376027914 3.3376243877126592 0 0 0
377 5 5.131950000183313 10.517155482513706 3.3287213932658894 0 0 0
376 1 6.884913914297938 10.505021094660366 1.522798200225184 0 0 0
389 2 6.903182359280109 12.28428850179595 3.319837390599809 0 0 0
387 1 5.132579976329264 12.279770987259715 1.4729633197704528 0 0 0
391 2 8.669406073103834 12.302832830748018 1.5230574732181785 0 0 0
378 5 8.659601643028193 10.51000819148875 3.266810502540967 0 0 0
392 4 8.679221950228891 14.075264675147515 3.3425819660127347 0 0 0
1066 2 10.472229457963776 12.280756916865794 3.34362511216997 0 0 0
382 4 -2.0737808680870766 14.116054219713943 3.3304777357712907 0 0 0
394 1 -0.25215575270322355 15.920247921711866 3.3295637507568117 0 0 0
380 2 -0.2583791161787952 14.137912185045332 1.5403366292507814 0 0 0
386 1 1.5498430939638081 14.159098553126725 3.306146222570713 0 0 0
395 3 1.5150070352952827 15.87167355963197 1.5165073530637527 0 0 0
384 5 3.3909908383990763 14.070869665743865 1.453130071894971 0 0 0
396 3 3.3736918156783515 15.833839212999845 3.2923142694847125 0 0 0
397 1 5.095594976867837 15.904987412653384 1.4999342185720932 0 0 0
398 4 6.923658420959986 15.92379896352895 3.3215530821543533 0 0 0
388 5 6.84994846617295 14.096821304675231 1.490405691477387 0 0 0
390 4 5.153575244392782 14.075973861123897 3.315387808887289 0 0 0
1065 5 10.490147192360052 14.094892130470713 1.5412268063365098 0 0 0
1079 4 10.436662740675022 15.915111418717757 3.32534143632153 0 0 0
347 5 1.4630749941895196 10.572195734153555 -0.32992368992343923 0 0 0
369 5 5.143319777970665 15.970502227729968 -2.0580475364621806 0 0 0
1058 4 10.497884740685127 10.509023093877216 1.5190723730960627 0 0 0
1038 1 10.46247235272744 12.352832727788847 -0.25382380655164366 0 0 0
1037 5 10.39995682064883 14.109787944594839 -2.0644376425009283 0 0 0
371 3 8.6589370444859 15.970022288455038 -2.074813765865162 0 0 1
409 3 -0.24770132279573248 12.307985362310099 6.941836546816442 0 0 0
452 2 8.699213533076083 14.099369109042783 10.483926425899503 0 0 0
411 5 1.5260426023880604 12.35896151785694 5.122240656000204 0 0 0
413 4 3.356327086528954 12.279729797719543 6.8986014487927205 0 0 0
1093 1 10.479230520281183 14.083408875744656 5.124918698929585 0 0 0
1107 1 10.471643891328915 15.921175020348912 6.901678381269804 0 0 0
415 1 5.141316386129868 12.277299435754843 5.108459524136299 0 0 0
417 4 6.898475426451437 12.303975567145228 6.891735796450642 0 0 0
1094 3 10.447907473509058 12.356397671137767 6.815838609504182 0 0 0
419 1 8.689235281382665 12.269570249815551 5.09628869730068 0 0 0
410 5 -2.0654975406131624 14.192114896228604 6.88954500725034 0 0 0
408 3 -0.2689111190660349 14.165414977395809 5.102383890356785 0 0 0
422 2 -0.25962585194789517 15.90217908514242 6.884152664352853 0 0 0
421 1 -2.0342606713714506 15.914957773563641 5.08841913787725 0 0 0
414 1 1.508946857668991 14.127744094690446 6.935644056641214 0 0 0
423 3 1.5371646078187466 15.853930228462719 5.164211014217835 0 0 0
412 4 3.368716331183239 14.102280635488052 5.150973492376569 0 0 0
424 1 3.3509484046961693 15.901874338715658 6.912705614170952 0 0 0
426 4 6.913558991274844 15.914305227397096 6.871548914071764 0 0 0
418 1 5.1691214529694385 14.112843821561402 6.90622660067287 0 0 0
425 2 5.122198281131833 15.892090031665411 5.14015363610074 0 0 0
416 1 6.874083393380542 14.089359458617048 5.094032076936183 0 0 0
427 2 8.711630326357522 15.932869134878487 5.127731266682322 0 0 0
420 4 8.667782988556857 14.127972128653456 6.856047151597929 0 0 0
453 2 -0.2505389413578451 15.908253990696235 10.47940867999733 0 0 0
431 3 -2.0608753149513217 12.321567689480565 8.684285646504673 0 0 0
433 5 1.5263897263454218 12.321711570931402 8.681831045565374 0 0 0
448 4 3.3182110484886533 12.273574696923044 10.479111072846411 0 0 0
450 5 6.900126439649212 12.302625097842322 10.470213374577995 0 0 0
435 4 5.120377968636518 12.275822388659794 8.688120771673775 0 0 0
1131 2 10.490734905083318 12.325144193901801 10.467786486478719 0 0 0
437 3 8.687378691934356 12.363395402108923 8.694866540516646 0 0 0
432 1 -0.25970727265100235 14.145512417197379 8.688934482514009 0 0 0
449 5 1.5308625771070146 14.10223524919962 10.487090608021603 0 0 0
434 5 3.3552650496049155 14.120048748090245 8.590314492016185 0 0 0
439 3 1.4828796937313078 15.909867597312935 8.652695641736921 0 0 0
454 3 3.327815319648883 16.036771548967014 10.485681122404934 0 0 0
436 2 6.881473766122039 14.110025479228765 8.727163673101709 0 0 0
440 5 5.157617408955185 15.96070094954477 8.643250205121412 0 0 0
455 4 6.910744201875741 15.94108192063098 10.494428339295935 0 0 0
441 5 8.662330663505937 15.927981349775573 8.685022325983407 0 0 0
438 1 -2.0499825502187794 15.90204627222264 8.688601451874176 0 0 0
400 2 -0.2716029810991592 10.516634700736745 5.133492947538603 0 0 0