LAMMPS data file via write_data, version 2 Aug 2023, timestep = 10000, units = metal

1372 atoms
5 atom types

-2.0842303644780658 23.084230364477943 xlo xhi
-2.0842303644780658 23.084230364477943 ylo yhi
-2.0842303644780658 23.084230364477943 zlo zhi

Masses

1 58.933
2 58.69
3 51.96
4 55.847
5 54.94

Atoms # atomic

3 5 -0.2149279228339798 -2.058969420575742 -0.30144484272070726 0 0 0
4 4 -2.0681317478695282 -0.2951972166054137 -0.3052782424500087 0 0 0
46 4 -2.065578853788015 3.339239052960262 3.363801885287382 1 0 0
8 2 1.5444995733709401 -0.26091228889349777 -0.280609327592767 0 0 0
702 3 10.49791250234029 1.5216021383333276 -0.2879952809314224 0 0 0
6 4 3.335512944809668 -0.2807169993488178 -2.0369766349351823 0 0 0
12 2 5.132596965736505 -0.27313235118983287 -0.282311287807001 0 0 0
9 2 5.129222798012822 -2.0697875323757735 -2.036018146811556 0 0 0
10 2 6.884112361941801 -0.25156595606659077 -2.050776627951212 0 0 0
687 5 10.496405819713528 -0.2636677807482786 -2.073524986713038 0 0 0
14 4 8.689107148473404 -0.28947599777372507 -0.27401667768794447 0 0 0
27 1 8.689391272902183 1.5081298055327086 -2.0798040456797535 0 0 0
17 4 -0.261331527098141 1.511827559589189 -0.28989277151388065 0 0 0
19 2 1.5752573280592426 1.5138641050020738 -2.071403874195921 0 0 0
20 2 3.3611748296533923 3.2966182181825934 -2.0711574346990385 0 0 0
22 3 1.5976971074588961 3.2494072268437137 -0.29363266416695555 0 0 0
21 1 3.332327916014189 1.5291841393050536 -0.2738021632274646 0 0 0
23 1 5.112131784432895 1.5281822641485667 -2.0433442211093533 0 0 0
25 2 6.88833090376133 1.5044303540379413 -0.2748441459322467 0 0 0
26 1 5.080363750136146 3.299569942324934 -0.2537428457363848 0 0 0
24 4 6.884391763487073 3.2994788098967254 -2.0328681805957474 0 0 0
28 2 8.687659925128171 3.269279936053708 -0.2773381846243095 0 0 0
32 5 -2.031203610268288 -0.26245354024129336 3.352594339602488 0 0 0
30 5 -0.21413917747588457 -0.24162711561286868 1.532737133514858 0 0 0
33 1 1.5041997533023812 -2.0626147511760524 1.5276244211627559 0 0 0
36 5 1.52986531692837 -0.29566651555944 3.3244994146664806 0 0 0
34 4 3.3337141329041104 -0.29695099737950703 1.4806273270742571 0 0 0
38 4 6.8754658371256525 -0.26874338664741615 1.5080953353300737 0 0 0
40 3 5.056832857104593 -0.35266653008841736 3.301007040771333 0 0 0
31 1 -0.26081682694767544 -2.0759828934143782 3.3293453260211083 0 0 0
55 1 8.71790286521162 1.496910148478764 1.5235001403907167 0 0 0
56 3 8.813656080271839 3.2394822962564893 3.32866971563094 0 0 0
42 5 8.738765974493742 -0.2666577314691303 3.2837083603669672 0 0 0
44 3 -0.20726539450646245 3.278037505502778 1.5566515149204805 0 0 0
45 2 -0.22258782293683588 1.5448091746610784 3.3451521468014915 0 0 0
50 2 1.5440213507804275 3.318192760175215 3.3310293937340285 0 0 0
48 2 3.3085730176218258 3.312665587627896 1.5251171277686293 0 0 0
47 1 1.5467815650702477 1.5262183271048142 1.5340643130885734 0 0 0
49 3 3.2805556960237237 1.5646026741804966 3.286860477975186 0 0 0
54 5 5.091019671033739 3.313966676703843 3.302577010469216 0 0 0
52 4 6.915811842965554 3.275554347497011 1.4874053957059883 0 0 0
53 5 6.904707621487196 1.505145550194403 3.3060779782989576 0 0 0
51 2 5.082711415649821 1.5230405738728758 1.4984075451839896 0 0 0
58 1 -0.24630935382120694 -0.2564578691385671 5.098248075744442 0 0 0
59 4 -0.2599286954438039 -2.049340765931818 6.908287425586416 0 0 0
98 3 8.728017792102841 1.481369607019848 8.799886377629676 0 0 0
64 4 1.5266496984635418 -0.2444873132806877 6.879107762192592 0 0 0
62 4 3.336720324864642 -0.2973198583771037 5.13217505948845 0 0 0
68 4 5.119626449242769 -0.296229663599386 6.940252721181182 0 0 0
66 4 6.914428560542469 -0.30036755038343416 5.128043082294814 0 0 0
57 3 -2.048509664072438 -1.9815437858985203 5.164213912047462 0 0 0
92 5 -2.077003112441794 1.46902233225575 8.706594498453434 1 0 0
70 1 8.737114638751956 -0.31414198245292946 6.946619000434974 0 0 0
69 5 8.692776868830611 -2.0761410319079827 5.134980154805001 0 0 0
72 2 -0.2100994102812494 3.311025270487317 5.1244395764926916 0 0 0
73 2 -0.264070130568975 1.5064935952457101 6.889769841396294 0 0 0
71 4 -2.055736697049322 1.514794729548147 5.114568178834686 0 0 0
75 2 1.5316285088549488 1.5435737368186344 5.098814181201245 0 0 0
78 3 1.540448747403851 3.2438548171486494 6.896858324907866 0 0 0
76 2 3.2942744769024266 3.3193233732778533 5.11871485805971 0 0 0
77 1 3.331990241804698 1.5368283557651097 6.894404410989402 0 0 0
81 3 6.939570511403643 1.468303154879994 6.955271781145987 0 0 0
79 5 5.085747441686097 1.5344853339987925 5.151244073585575 0 0 0
82 2 5.111617622791737 3.3051139291559144 6.920000884757484 0 0 0
80 5 6.912120028669502 3.3014266975798616 5.13669676675022 0 0 0
84 5 8.772283477776144 3.325555511725646 6.901265465744857 0 0 0
83 4 8.77506738805364 1.4765254047321794 5.150890667034889 0 0 0
86 3 -0.25291096673754543 -0.2522827946054333 8.746767340884649 0 0 0
88 5 3.2847383534225254 -0.198358709192879 8.676983553600495 0 0 0
60 1 -2.0751861451037783 -0.264358693629817 6.916039481137625 1 0 0
90 1 6.935331741732413 -0.29319896821506486 8.701142599561532 0 0 0
103 1 6.896088706417885 -2.0818567616628934 10.466465619476457 0 0 0
91 2 8.701087497337218 -2.0621472576040865 8.73655908485847 0 0 0
105 1 8.680543046172113 -0.28384306453909547 10.47021380016268 0 0 0
93 5 -0.2771926100481335 3.2900342985367237 8.718071580126647 0 0 0
95 4 3.335185984235607 3.3010261190778176 8.688305037919939 0 0 0
94 1 1.5073824446380508 1.5235874606038264 8.709199335189572 0 0 0
101 3 3.34394761268861 -2.0820134086824575 10.47482198938835 0 0 0
97 3 6.890434989714793 3.309848110447365 8.705134510870069 0 0 0
85 4 -2.0712768604326186 -2.082639385260336 8.715868623834403 1 1 0
96 2 5.127683890030696 1.5387578801645536 8.693421436119687 0 0 0
110 2 6.910021560132343 1.5327309953926558 10.470270817002378 0 0 0
112 2 8.700998421143506 3.336790703874208 10.470010364825617 0 0 0
104 4 5.121809647352546 -0.25635437787100873 10.436378220476236 0 0 0
74 3 -2.0291923981573703 3.3115952556094643 6.84609369092945 1 0 0
109 5 1.5600510530799387 3.2823426457824283 10.462121023304286 0 0 0
108 2 3.3235320555427927 1.5267198707852163 10.499122810570363 0 0 0
100 1 -2.0715969004203565 -0.26625781299810963 10.462725582671462 1 0 0
107 2 -2.08371823804346 3.3096528121735354 10.4817533512122 1 0 0
114 4 -0.28378558205555804 -0.2988046492169057 12.267109404669984 0 0 0
118 3 3.3626097551357064 -0.2877211533598266 12.311647556449099 0 0 0
102 4 1.5267806231842893 -0.26816163255353864 10.525631266486405 0 0 0
122 3 6.886533789084581 -0.3001440278890768 12.227572856066807 0 0 0
121 2 5.116127543223958 -2.0561588773162915 12.286381103190497 0 0 0
125 4 8.704884552987966 -2.078811584687018 12.244580375501641 0 0 0
154 4 8.712412817564884 1.5362006424395107 15.896643576618262 0 0 0
137 5 6.8902549343739965 1.606040844740905 14.069035211957747 0 0 0
128 3 -0.3254129091214117 3.3636868701176863 12.284804759708093 0 0 0
106 2 -0.3066460151564011 1.5281494093593322 10.508007792661347 0 0 0
140 3 8.72411345847619 3.362445072628632 14.094924504856625 0 0 0
131 5 1.5420088576376128 1.5387217920035134 12.304538924220381 0 0 0
132 2 3.330089875206633 3.301698497043955 12.31379721835739 0 0 0
113 4 -2.06618414811442 -2.0603442706898 12.254961917684795 1 1 0
136 1 6.879456467045524 3.339678734323207 12.244981110110457 0 0 0
135 4 5.112145837299189 1.5187126636287653 12.313666958998443 0 0 0
139 4 8.694565851206598 1.549551424204714 12.231430889698172 0 0 0
142 3 -0.27391252978588865 -0.3469465933989015 15.885066670236446 0 0 0
115 1 -0.2245871685805594 -2.0806504244863055 14.115517005403822 0 0 0
141 2 -2.0384371690304413 -2.0504952445646762 15.913800311440363 1 0 0
144 3 3.272931924307365 -0.253455751477151 15.963429915422902 0 0 0
120 3 1.5251997279526266 -0.322798824975239 14.09017352540859 0 0 0
143 1 1.5679706545445347 -2.0756795046122 15.910065868303958 0 0 0
145 3 5.074768260970459 -2.0748942167798106 15.977737122186888 0 0 0
124 2 5.116956681166722 -0.2650435525590326 14.111254446488976 0 0 0
146 3 6.922196390889664 -0.26652934561851105 15.909765732316687 0 0 0
123 3 6.823737850606126 -2.0631728401484835 14.091994553108755 0 0 0
153 3 6.870593612836262 3.314995174494905 15.935423321329214 0 0 0
126 5 8.713381931014476 -0.2758068544101924 14.05795566529953 0 0 0
147 2 8.696316691105118 -2.0251633897849075 15.888799969122045 0 0 0
149 5 -0.2890304117411759 3.319843992612144 15.926793747907562 0 0 0
129 5 -0.3025639752673468 1.5172082772149968 14.123612978634418 0 0 0
150 2 1.5343982216666885 1.4918897242223443 15.905659458876816 0 0 0
133 1 3.3150393925169013 1.517705011618894 14.119685298616366 0 0 0
134 5 1.544544943992263 3.3149570017467287 14.140762297125375 0 0 0
151 2 3.306759089265398 3.295124819494213 15.918394834085774 0 0 0
138 1 5.074671925487793 3.313914575267488 14.095900008321621 0 0 0
152 5 5.084306931281891 1.5097709369480263 15.92495622892235 0 0 0
117 2 1.5483771185691628 -2.07733539630172 12.305556892064567 0 0 0
116 4 -2.0635141421287138 -0.29518390068702133 14.083821221737333 1 0 0
800 2 10.492635463283401 -2.054930521545097 14.046244391311756 0 0 0
148 1 -2.0640809066580914 1.528394448043841 15.890887496988197 1 0 0
827 5 10.484683646861377 -0.3266167381879196 15.89271850173155 0 0 0
111 3 5.087749949108746 3.27312408321437 10.544949939602077 0 0 0
170 3 -0.13660305498050604 -0.24284949353080476 19.58079640291166 0 0 0
155 3 -0.216153945811688 -2.023459625780729 17.741159968995685 0 0 0
158 2 1.5509079674555846 -0.28678947046014885 17.699499363276725 0 0 0
174 4 3.3154042946155284 -0.2752473783776671 19.491640195240834 0 0 0
856 5 10.478984261195038 -2.070502997868043 21.29541990505867 0 0 0
160 4 5.1210857302624255 -0.2511651096049767 17.759627633370137 0 0 0
178 1 6.868957971942087 -0.25944807637859135 19.536237452095946 0 0 0
183 5 -2.025478759716094 1.4978300692660964 19.55478944251369 1 0 0
159 4 6.922969429223442 -2.0711862940485415 17.74284651827124 0 0 0
161 3 8.643932464810158 -0.25717807082289057 17.770146116539102 0 0 0
841 5 10.470418601413083 -2.060032245069889 17.798804581345756 0 0 0
162 5 -0.2767920523853313 1.472671805531745 17.686911375752484 0 0 0
184 4 -0.23818560359778135 3.293039537339445 19.500433022924387 0 0 0
165 5 1.5730830986638755 3.3611516847221696 17.69397689143888 0 0 0
187 2 1.5493526734850853 1.5120612248574372 19.50233463204242 0 0 0
164 1 3.2805205553879606 1.5256495952324325 17.697084643418442 0 0 0
188 4 3.3483275442559193 3.315065727988885 19.502214800557958 0 0 0
192 5 6.842803627922728 3.298746139939564 19.53215739822467 0 0 0
167 4 5.093387966023395 3.307361628013708 17.72707133743658 0 0 0
191 1 5.165644777035033 1.5351964173842003 19.528417630223785 0 0 0
166 1 6.91820942572921 1.5313973931732912 17.713730262492078 0 0 0
869 4 10.49560083338258 3.3261151706408394 19.52009077926524 0 0 0
848 5 10.496294066724818 1.538633087671777 17.711607541078415 0 0 0
195 4 8.679825992696026 1.5262490211433701 19.54851351052338 0 0 0
168 5 8.688127516125128 3.3357696640478913 17.696614772483617 0 0 0
163 1 -2.0652168971193063 3.2920127794597787 17.710991867751037 1 0 0
169 3 -2.0694395044523155 -1.9701641413225879 19.468648475500572 1 0 0
176 1 1.5513141524187382 -0.26614181458053127 21.31067174898837 0 0 0
175 4 3.310725196237469 -2.0764874271946088 21.296837933807986 0 0 0
172 4 -2.0536569310375583 -0.2988321405412487 21.340470620780376 1 0 0
179 5 6.8819976082830445 -2.0292610974169927 21.29891117123863 0 0 0
180 4 5.110481672421958 -0.28762259036752247 21.31072450771323 0 0 0
182 1 8.673719920698186 -0.256544990768832 21.332265617651277 0 0 0
186 1 -2.0340134817977185 3.3189459266583645 21.313167923397415 0 0 0
16 5 -0.2521005625445814 3.2970326284901095 23.047880188081407 0 0 0
185 1 -0.21779537208924643 1.5331424636532927 21.32127272536006 0 0 0
15 5 -2.0588405435213812 1.5132300323528387 23.048320554943572 0 0 0
189 3 3.3665848422441873 1.5193511868370895 21.308944897834426 0 0 0
190 5 1.5751407656862846 3.289847933860784 21.30623204282516 0 0 0
194 2 5.108456559314168 3.3229065956617396 21.319628775812745 0 0 0
193 1 6.875299065780579 1.5153813756675416 21.3439320130001 0 0 0
196 3 8.679094162390955 3.2893489936569034 21.341484225155742 0 0 0
156 1 -2.0524967797358507 -0.25068309816845674 17.703362787351978 1 0 0
181 2 8.697874481147952 -2.0287601638849577 19.558416485254636 0 0 0
2 5 -0.20133847634819543 -0.283070410846532 23.042954545974126 0 0 0
855 2 10.458972493951123 -0.26104319526355535 19.547545601363073 0 0 0
199 4 -0.2037825527799081 5.099421571323238 -0.33450219197521186 0 0 0
200 1 -2.0609730425086497 6.8640791756792146 -0.3438758441049224 0 0 0
218 3 -2.031081883596869 5.114604992913143 1.4899672775794495 1 0 0
204 2 1.5490371781369698 6.929213774937401 -0.31184608203563363 0 0 0
203 3 3.3010246392433533 5.101690775792045 -0.2447901765502043 0 0 0
205 4 5.114743608660141 5.116075898927264 -2.051866975306027 0 0 0
208 4 5.128610389354908 6.920920640675558 -0.26249468949992233 0 0 0
207 1 6.914790737401637 5.083867162622608 -0.26611643463293183 0 0 0
206 1 6.900739895548414 6.8984688984806555 -2.019790130545789 0 0 0
210 4 8.660567574180309 6.921832737104342 -0.2447122278615751 0 0 0
209 4 8.66497390388482 5.105804067878824 -2.0551008876441066 0 0 0
212 3 -0.3058454511174509 8.604426627402773 -0.3709751015774348 0 0 0
214 2 3.2795603765109806 8.739820277966896 -0.29273876591253245 0 0 0
216 1 6.918017970731256 8.761097774318037 -0.29827192213889503 0 0 0
374 3 3.277193254833022 10.48383459435387 1.4768753918070083 0 0 0
215 3 5.169207502702317 8.76448673040694 -1.9967440440877913 0 0 0
884 4 10.49775281572445 5.100450258153464 -0.27148248675954184 0 0 0
897 3 10.437475179151498 8.711362401288374 -0.21659630578356812 0 0 0
217 1 8.662913471959095 8.724470406577089 -2.0642240063378074 0 0 0
883 4 10.454008160788083 6.91760870733525 -2.0405157341976152 0 0 0
219 3 -0.19800976467542658 6.825577896233824 1.4789051355529166 0 0 0
220 2 -0.2088545149493557 5.069643932569023 3.337598137904181 0 0 0
221 5 -2.009443827505746 6.827026470675242 3.3114506285112357 0 0 0
224 2 3.292135802388264 5.097328083479723 3.3299402809000918 0 0 0
223 4 3.3059061864402355 6.923977278775816 1.535420724033446 0 0 0
225 3 1.5137419440822153 6.843963534009343 3.373607370726003 0 0 0
222 2 1.5487835229668765 5.071037087708078 1.5357679676706906 0 0 0
228 4 6.879737197473065 5.119475899965293 3.3196095768180864 0 0 0
229 1 5.054078564263131 6.957077095896173 3.364726370486272 0 0 0
226 4 5.109068636230591 5.123274375932971 1.5331075182528888 0 0 0
227 4 6.875600240138763 6.933838081567593 1.54499404907333 0 0 0
231 1 8.713128680191568 6.928249904835241 3.2819981312712945 0 0 0
230 5 8.697516673270636 5.119893131451526 1.537408609010721 0 0 0
238 1 8.67340043962805 8.735516219936553 1.535840985945896 0 0 0
233 3 -0.24876665840996165 8.663909015786102 3.389333459674079 0 0 0
232 4 -1.9879115564667869 8.643302023383098 1.5082891178780342 0 0 0
235 2 3.259458558931492 8.719620792815421 3.3487557883793095 0 0 0
234 3 1.516233863211988 8.687361736162575 1.4944181412370796 0 0 0
375 3 1.490842591341326 10.480558229471503 3.393631844725512 0 0 0
237 2 6.894686385976893 8.73764603083067 3.293836721834782 0 0 0
236 4 5.097037454011665 8.731170280336382 1.522071872068471 0 0 0
349 1 5.1137980412056585 10.491317840689058 -0.2576813891514961 0 0 0
918 5 10.461588030746318 8.711992068506527 3.216482805596441 0 0 0
346 3 3.2886812415454303 10.496461928761029 -2.020903797822374 0 0 1
240 2 -0.2393233880403167 6.89368289796228 5.160245890601728 0 0 0
241 5 -0.23574048249683752 5.153927777437735 6.928849114457238 0 0 0
242 2 -2.0482586539180248 6.914554078578168 6.955641438590715 0 0 0
243 2 1.5319244587276537 5.095926503615671 5.114148504248213 0 0 0
246 1 1.517612526282986 6.925544981827741 6.920509943951646 0 0 0
244 5 3.3149000303276948 6.937490890515955 5.138273523697046 0 0 0
245 4 3.3038733565175615 5.121847581974753 6.927197842276116 0 0 0
247 4 5.08986731334158 5.111112040974989 5.110196545949815 0 0 0
250 4 5.123641323855035 6.961093470064728 6.907277908302412 0 0 0
248 5 6.868762821654892 6.981142832336689 5.051941263331694 0 0 0
249 4 6.912194783820003 5.132012111755496 6.882700712117122 0 0 0
251 3 8.761905123755126 5.136546812303492 4.999954780798275 0 0 0
252 4 8.67214495553473 6.921256827659929 6.894719865066846 0 0 0
254 1 -0.26437487925176617 8.692935355171539 6.949741434177143 0 0 0
253 4 -2.040243877757103 8.670995300023012 5.148642648386062 0 0 0
255 2 1.5107093532919993 8.693066894039324 5.1578021706809185 0 0 0
256 1 3.282542888129265 8.706503403904676 6.908846816026381 0 0 0
403 5 1.5131751864026433 10.475079932701428 6.948103358739005 0 0 0
956 1 10.495489850944798 5.124816484795085 10.49177318859881 0 0 0
257 1 5.077433801577626 8.733568708498838 5.093095920088687 0 0 0
258 1 6.894502563479272 8.735352792541075 6.903624758277816 0 0 0
939 3 10.474160559989917 8.68636803947175 6.914888362435172 0 0 0
259 4 8.688802725146937 8.721483932967242 5.065433812063974 0 0 0
406 5 8.705779268579192 10.499123765508125 6.902371616470474 0 0 0
261 1 -0.268459653318335 6.927587666970613 8.703813859217316 0 0 0
270 2 8.698760522040718 8.691033123071122 8.67825617450559 0 0 0
271 4 -0.2841203744506315 5.131713999232275 10.454384416777524 0 0 0
262 2 1.509569965059577 5.143859287042642 8.699489456480404 0 0 0
263 5 3.2610538140485805 6.985008305305755 8.721283500757295 0 0 0
273 4 3.2975273120646795 5.127343204936817 10.472096136554889 0 0 0
264 5 5.130345368046851 5.165444808910203 8.689425994990286 0 0 0
265 1 6.894729819272313 6.945883851137695 8.703189835033843 0 0 0
405 3 5.027667305793231 10.454335054592876 6.868836280426916 0 0 0
276 1 5.075885688811649 6.935649577434711 10.47377510008407 0 0 0
266 4 8.695693389397013 5.131266738961353 8.71770489461698 0 0 0
277 3 8.74006643236025 7.001360845422721 10.493079158201066 0 0 0
267 2 -2.043180354332806 8.700269962083894 8.720044958264792 0 0 0
429 4 3.30309928314165 10.498255332383733 8.725178833869679 0 0 0
268 1 1.4976835965308835 8.705453152105342 8.713774986733775 0 0 0
260 2 -2.0651032812361727 5.125855757322559 8.699860265973715 1 0 0
269 2 5.089322515665595 8.714550591725143 8.703161795770503 0 0 0
280 3 6.854541185865034 8.635038995424711 10.468252087347725 0 0 0
430 3 6.854796748177946 10.464016816458985 8.656527940503755 0 0 0
401 5 -2.0214046470217344 10.499088816583392 6.949507419983486 0 0 0
404 5 6.885369611864107 10.486054885656651 5.092810937710285 0 0 0
239 4 -2.056656684497451 5.122545158790835 5.133039274634254 1 0 0
400 2 -0.24327732058333157 10.488075166280254 5.1841078020979765 0 0 0
274 1 1.5017652302428741 6.946337994121818 10.496563899086683 0 0 0
272 2 -2.0809196623490216 6.922010822164119 10.473697848261281 1 0 0
282 5 -0.26286254683699695 6.860162879502477 12.300135381338217 0 0 0
312 4 8.706510058044424 8.655155316614742 15.919658466272653 0 0 0
285 3 1.5357354426275798 5.080536357016558 12.289537952558952 0 0 0
286 3 3.304107772550191 6.937040342496497 12.26910038026968 0 0 0
486 1 6.886770010155193 10.483925183781825 15.894515142469698 0 0 0
289 2 5.060099146020635 5.1072283638701315 12.277824724865365 0 0 0
290 4 6.862189030460403 6.947986066926572 12.321953781261271 0 0 0
293 3 8.731666653738161 5.069460040345035 12.251886612195909 0 0 0
1142 3 10.482185786981647 10.477195726433914 12.38499325937696 0 0 0
278 3 -0.2673217420113894 8.679226448673615 10.510326524034529 0 0 0
295 2 -2.077614025106115 8.69749438432915 12.278723684487513 1 0 0
279 2 3.286795785684769 8.730419092783183 10.519964711927132 0 0 0
297 2 1.5347732056614372 8.70080002516527 12.288040085418746 0 0 0
298 2 3.291170187121211 8.7151571544242 14.106999306238762 0 0 0
299 5 5.051426726579515 8.704874117948869 12.308619594679742 0 0 0
301 1 8.714413419093978 8.702403307035869 12.367524576316113 0 0 0
311 1 5.097306884252684 8.710536891700443 15.885722962749227 0 0 0
283 1 -0.2781058470806087 5.092844349053127 14.131707052160067 0 0 0
303 5 -0.26775567648933835 6.8561137534337115 15.90751160760421 0 0 0
302 3 -2.069695768499031 5.089171295141569 15.912497586865522 0 0 0
288 5 1.5186063289205918 6.9109005695060475 14.13502840552802 0 0 0
304 1 1.5297024309153862 5.095915863726395 15.900686464118014 0 0 0
287 5 3.360921327030294 5.095738900599109 14.115556585401425 0 0 0
305 4 3.325337493196799 6.930345927591499 15.901094518912172 0 0 0
291 3 6.809346857682918 5.069522402233124 14.009963565589763 0 0 0
292 1 5.077516424263549 6.922748082492624 14.097512535761386 0 0 0
306 5 5.092687879189732 5.104248769368799 15.924498869352675 0 0 0
307 3 6.837190717645154 6.943341359420423 15.940220732207962 0 0 0
308 4 8.65648127768703 5.159973707386736 15.894930807140714 0 0 0
294 3 8.715329179609451 6.902674495663244 14.062847862526965 0 0 0
484 2 -0.2502330263610221 10.495256238401197 15.886179003237578 0 0 0
296 4 -0.275680056490268 8.696504953380758 14.083030549078353 0 0 0
300 5 6.874067975715199 8.696522957410428 14.134453550531108 0 0 0
310 2 1.5135247369893314 8.717783345320624 15.906710303958624 0 0 0
485 5 3.2853074457892513 10.465578319248834 15.950497905390836 0 0 0
459 3 1.4895063622764837 10.484558071555247 14.045156689270215 0 0 0
275 5 6.87329949762702 5.189868681724261 10.537010841241509 0 0 0
445 5 8.692928112442152 10.370938136692102 10.53309812122929 0 0 0
313 2 -0.2928525456349787 5.118468450581908 17.716236426120968 0 0 0
324 2 -0.2807073442747139 6.912087800002235 19.48840537993875 0 0 0
323 3 -2.0015844628616075 5.1050881282116745 19.52066364514157 0 0 0
314 1 -2.0627730632624917 6.8944724865176426 17.7140397350666 0 0 0
316 3 1.550340035141806 6.843958313364239 17.690613552018256 0 0 0
327 4 1.5559956922816978 5.140678476011235 19.53025627765599 0 0 0
315 1 3.3515159893215785 5.14114265902079 17.703616311926893 0 0 0
328 2 3.3474123014454955 6.913898026560356 19.524395992393462 0 0 0
318 3 5.086239992130504 7.004728684024297 17.789119797952903 0 0 0
331 1 5.107237278164322 5.150862598490277 19.54625014567445 0 0 0
317 4 6.874471696500912 5.151748188661347 17.749542762784863 0 0 0
332 2 6.880884593750238 6.931117486822083 19.534850713802516 0 0 0
319 1 8.707737265133213 6.906357546083198 17.748498614894892 0 0 0
335 5 8.699465787149688 5.155978893699165 19.508555000909368 0 0 0
198 2 -0.23587560150135622 6.930712741144955 23.057463135003747 0 0 0
337 1 -2.059953128622576 8.707916510630977 19.47981685525856 0 0 0
320 4 -0.27408052664495325 8.691938369362866 17.675837843330523 0 0 0
326 4 -2.071372853958689 6.959038404169958 21.28520007680495 1 0 0
339 5 1.520676786222728 8.6836729282904 19.49918518180888 0 0 0
321 1 3.280918989320268 8.701730189361937 17.720996152385677 0 0 0
516 2 6.866619051283669 10.484117215904597 19.4826306637931 0 0 0
341 1 5.117294224927335 8.714903356297114 19.513282308794757 0 0 0
322 1 6.904514000648858 8.669334054021315 17.71379883788397 0 0 0
500 5 5.1679821286845735 10.426575049388333 17.663115119103658 0 0 0
343 5 8.681667813897784 8.696283173301687 19.476479081226543 0 0 0
1005 3 10.485221469083958 8.666983888502598 17.744751302486957 0 0 0
513 2 -2.0730820739509745 10.45059502413346 21.294950155041633 1 0 0
325 3 -0.22844425816147615 5.174698448540804 21.30264030336127 0 0 0
330 1 1.5418446255193845 6.950869858939859 21.280274886576162 0 0 0
329 2 3.3665740490411626 5.140112601754321 21.29654300913366 0 0 0
201 4 1.6018325829021915 5.135304048275057 23.051165899661108 0 0 0
202 5 3.320390053554906 6.992484491833703 23.057485410125768 0 0 0
333 2 6.87414636438307 5.140946270036828 21.295610441804 0 0 0
334 1 5.132842650618354 6.926976199274084 21.319041907864882 0 0 0
336 5 8.681574979305966 6.913078334071485 21.348936695642358 0 0 0
1023 4 10.458600148668456 8.723185216019294 21.304630796651033 0 0 0
338 2 -0.26326261502673115 8.703443715580196 21.292860534671465 0 0 0
340 4 3.341196619546911 8.75350743745507 21.28224580689644 0 0 0
213 2 1.4923275262718665 8.711602246768914 23.06781024138282 0 0 0
342 3 6.8553624525284755 8.740032938801013 21.32741736677156 0 0 0
512 4 -0.26528403889299773 10.478509192448797 19.48511117151471 0 0 0
514 3 3.332673580692911 10.485398592668735 19.41415874369593 0 0 0
501 4 8.671530245466204 10.49154059622278 17.677723984582443 0 0 0
515 2 1.5178611745974122 10.497185156009227 21.31234797572076 0 0 0
344 1 -0.2792453018362956 10.496571139395511 23.02802329443461 0 0 0
499 1 1.5162235403715343 10.494057273759259 17.676136434334637 0 0 0
211 1 -2.039169389084929 8.701431104124516 23.08110759695022 1 0 -1
197 5 -2.0806950475943484 5.155902434884078 23.04420064665051 0 0 -1
353 3 -0.25855923377810414 12.392936971111505 -0.35452233760092505 0 0 0
357 1 3.26692865781578 12.293462912159354 -0.2715470896008513 0 0 0
347 5 1.4318310041866347 10.522297036113393 -0.33998594157573364 0 0 0
361 2 6.914059228191836 12.278239569977774 -0.2288110514732241 0 0 0
399 3 8.725787964552364 15.904342011717238 1.5223858010188138 0 0 0
359 4 5.124051584115596 12.266431504540137 -2.002214298809064 0 0 0
363 4 8.668261750697356 12.315542324850789 -2.0419353596952012 0 0 0
1038 1 10.488685088821548 12.294560715434903 -0.263480523565775 0 0 0
366 5 -0.23657227968222921 15.909574122395608 -0.3196746967222539 0 0 0
1065 5 10.488543596134024 14.068420981624827 1.485095637418344 0 0 0
358 2 1.5223571039431827 14.104016712184396 -0.27760854219036224 0 0 0
368 4 3.308893770710396 15.915479214720301 -0.2842472484211309 0 0 0
372 3 -0.2652517690061671 10.517134875589763 1.5141008425922704 0 0 0
388 1 6.9194392079635625 14.089219490687103 1.4912640721477184 0 0 0
360 4 6.879413516625946 14.102357447797234 -2.0331354406629996 0 0 0
362 5 5.096210290038214 14.097302022250409 -0.19183881266036334 0 0 0
370 4 6.888136779435412 15.927584815620676 -0.23913308391502197 0 0 0
364 1 8.686008713500216 14.097283984009117 -0.23783903096969738 0 0 0
371 3 8.662195231935318 15.906662695656633 -1.994077234868678 0 0 0
1037 3 10.476749011663745 14.13422660097825 -1.9405183597494153 0 0 0
381 3 -0.2438128871251694 12.365366891261678 3.376303868594241 0 0 0
379 5 -2.0431168985763284 12.38302762606684 1.5405164639554552 0 0 0
373 5 -1.9541511849665318 10.505940128683639 3.358329202800302 0 0 0
383 4 1.515782702230154 12.333771276099725 1.5357194452565597 0 0 0
385 3 3.284839774349096 12.349718887334847 3.3397705269791764 0 0 0
392 4 8.727069285581669 14.09042569861822 3.3213306563717393 0 0 0
398 4 6.901720951044323 15.8830337615431 3.3064625056250274 0 0 0
389 3 6.912752350775684 12.351912792431623 3.295903164057025 0 0 0
387 4 5.086980792743914 12.279330796332893 1.4932090963246458 0 0 0
1058 2 10.473852131026293 10.547342909957525 1.507664715167479 0 0 0
391 2 8.686134201928729 12.294151058814974 1.513320528595585 0 0 0
390 4 5.12151318152006 14.098044537090118 3.288299248002455 0 0 0
378 2 8.693557470981471 10.537507020494226 3.26896192409239 0 0 0
394 2 -0.24758372707274764 15.916090398285597 3.3715689308485293 0 0 0
380 5 -0.2503555954546091 14.158930893881124 1.5882374197936784 0 0 0
393 4 -2.0719647821079454 15.913812074590096 1.5460041110859715 0 0 0
384 1 3.298282604049129 14.111114578247948 1.500762276841134 0 0 0
395 3 1.5572324847664516 15.895885531604845 1.5267108797598299 0 0 0
396 5 3.378458497074832 15.892280743581125 3.259059723728099 0 0 0
386 1 1.5643160148626976 14.138832318634755 3.3451455222466753 0 0 0
397 1 5.104495825556081 15.935415365824204 1.5100163443393306 0 0 0
382 1 -2.0787454424394163 14.148301649407625 3.343813523598033 1 0 0
377 4 5.063228179152248 10.520933887162657 3.3321375904347548 0 0 0
348 1 6.9011624426226525 10.501144277105995 -2.048386664197868 0 0 0
345 3 -1.9840220730129658 10.507019363959019 -0.3455728406905249 1 0 0
1030 3 10.445366739609238 10.509870593774325 -2.026395473177158 0 0 0
350 3 8.647160337459091 10.513398574761366 -0.23122826073469976 0 0 0
376 2 6.911442267187099 10.505514434417073 1.5311629811414156 0 0 0
355 1 1.5001307599411642 12.294287838962614 -2.0754963194015232 0 0 1
367 1 1.5095331052806717 15.920612639485924 -2.0521173040418077 0 0 1
356 5 3.2625284294744454 14.04618463644231 -2.046545262246891 0 0 1
409 1 -0.274468512054939 12.307871849217491 6.955229225041651 0 0 0
407 4 -2.0548301230551975 12.322786700079217 5.1398814831647535 0 0 0
1118 3 10.481338416313763 14.147940330510169 8.690315042689939 0 0 0
440 2 5.094177999806065 15.88798666436084 8.715035965875376 0 0 0
411 5 1.4917739919505115 12.35331053236501 5.194102730544265 0 0 0
413 4 3.3119425786062986 12.317820683856727 6.948278211195935 0 0 0
415 2 5.0899611673988225 12.305260288333498 5.103200364066679 0 0 0
417 4 6.875137482594864 12.299195211008936 6.88180829078695 0 0 0
455 4 6.888342041931108 15.864880865603352 10.485147111534202 0 0 0
1086 3 10.497569812429889 10.531621565362354 5.061177626322322 0 0 0
419 4 8.7244579818437 12.32130757508964 5.102998599782658 0 0 0
408 3 -0.2963498202435648 14.161939909712064 5.117683009378612 0 0 0
422 2 -0.27106311629127205 15.883672844068844 6.923387212207173 0 0 0
410 3 -2.042230755757565 14.162875063627697 6.944441260727545 0 0 0
421 2 -2.0665252788728394 15.895703682996562 5.116531012444592 0 0 0
414 1 1.4995911913079716 14.11073532953254 6.9547452446218845 0 0 0
423 3 1.5059793810222277 15.862576301028243 5.156278939613713 0 0 0
412 5 3.325597540550908 14.131009599947618 5.1441513558464615 0 0 0
424 2 3.3138281464055073 15.869027154079713 6.942504593030388 0 0 0
426 5 6.906770922872139 15.922764912197351 6.894353159236948 0 0 0
418 5 5.109260728361246 14.090152673076613 6.935724088121467 0 0 0
425 2 5.115434272657903 15.905722829742114 5.129157925125159 0 0 0
416 1 6.853062868431259 14.105510785529665 5.127796993834545 0 0 0
427 3 8.749493877928131 15.865649339211787 5.074373028771822 0 0 0
420 4 8.721051702056064 14.114709348022027 6.85768741807754 0 0 0
441 1 8.706129937948123 15.861090687086396 8.715399529651672 0 0 0
431 3 -2.038440617305429 12.332575071609998 8.757072193315087 0 0 0