LAMMPS data file via write_data, version 2 Aug 2023, timestep = 4122, units = metal

1372 atoms
5 atom types

-2.0842303644754496 23.08423036447533 xlo xhi
-2.0842303644754496 23.08423036447533 ylo yhi
-2.0842303644754496 23.08423036447533 zlo zhi

Masses

1 58.933
2 58.69
3 51.96
4 55.847
5 54.94

Atoms # atomic

3 5 -0.21478212212305986 -2.0589455721664915 -0.30141102186914365 0 0 0
8 2 1.5446453744129214 -0.26088844058030974 -0.28057550700402145 0 0 0
46 4 -2.065433052599527 3.3392629016601956 3.36383570586068 1 0 0
6 4 3.3356587457757985 -0.28069315120852484 -2.0369428144382717 0 0 0
12 2 5.132742766907282 -0.273108503123241 -0.28227746745559174 0 0 0
9 2 5.129368598985282 -2.0697636842990925 -2.0359843263700514 0 0 0
10 2 6.8842581631368684 -0.2515421082002205 -2.050742807660822 0 0 0
687 5 10.496551620972175 -0.26364393294734734 -2.0734911666181257 0 0 0
14 4 8.68925294970792 -0.28945214988050355 -0.2739828574113379 0 0 0
55 1 8.718048666397307 1.496933996339656 1.5235339606300387 0 0 0
702 3 10.49805830351464 1.5216259862066785 -0.2879614608129451 0 0 0
17 4 -0.26118572604766294 1.5118514078770604 -0.2898589506931246 0 0 0
20 2 3.36132063090453 3.2966420662312474 -2.0711236142798803 0 0 0
22 3 1.5978429088062227 3.2494310751862097 -0.2935988435573601 0 0 0
21 1 3.3324737173176926 1.5292079875024056 -0.2737683427432231 0 0 0
23 1 5.112277585691523 1.5282061121378918 -2.0433104007791916 0 0 0
25 2 6.888476705040049 1.5044542020080744 -0.27481032571369063 0 0 0
26 1 5.080509551604843 3.2995937903644847 -0.2537090254014681 0 0 0
24 4 6.884537564870949 3.2995026576968454 -2.032834360555598 0 0 0
27 1 8.68953707413762 1.5081536532719069 -2.079770225553092 0 0 0
28 2 8.687805726360573 3.269303783950443 -0.27730436454666263 0 0 0
31 1 -0.26067102590934554 -2.0759590449839194 3.3293791464924047 0 0 0
30 5 -0.21399337622866624 -0.24160326726194986 1.5327709541865282 0 0 0
33 1 1.5043455543372912 -2.0625909028061793 1.5276582416617375 0 0 0
36 5 1.530011118139012 -0.29564266717170334 3.3245332352073413 0 0 0
34 4 3.333859934075372 -0.29692714907398804 1.4806611475610694 0 0 0
38 4 6.875611638305428 -0.2687195387047283 1.5081291556294212 0 0 0
40 3 5.05697865823904 -0.35264268195288273 3.30104086122256 0 0 0
19 2 1.5754031289880015 1.5138879532070544 -2.0713700534995043 0 0 0
32 5 -2.031057809320508 -0.2624296917407485 3.352628159860082 0 0 0
42 5 8.738911775659291 -0.2666338835276193 3.283742180738909 0 0 0
44 3 -0.2071195932632389 3.2780613540067547 1.5566853354375356 0 0 0
45 2 -0.22244202174446012 1.5448330231553655 3.3451859672476667 0 0 0
56 3 8.813801881653946 3.2395061441477218 3.3287035358679335 0 0 0
50 2 1.5441671521731266 3.3182166085787643 3.3310632142315133 0 0 0
48 2 3.3087188192256054 3.3126894357785206 1.5251509481450958 0 0 0
47 1 1.5469273663526482 1.5262421755288953 1.5340981335737027 0 0 0
49 3 3.2807014973688227 1.5646265224640359 3.2868942984429546 0 0 0
54 5 5.09116547261928 3.313990524614445 3.30261083092625 0 0 0
52 4 6.915957644428174 3.2755781954523955 1.4874392160484329 0 0 0
53 5 6.90485342274572 1.5051693980879908 3.306111798595489 0 0 0
51 2 5.0828572169393915 1.5230644219843472 1.4984413654663897 0 0 0
4 4 -2.0679859471770086 -0.2951733681550087 -0.3052444213015996 0 0 0
58 1 -0.24616355283922065 -0.25643402068681764 5.098281896059762 0 0 0
64 4 1.5267954994370305 -0.24446346483859654 6.879141582514559 0 0 0
62 4 3.33686612598949 -0.29729601012511275 5.132208879970429 0 0 0
68 4 5.119772250297179 -0.29620581549493885 6.9402865417802 0 0 0
66 4 6.914574361714548 -0.3003437023452627 5.128076902809203 0 0 0
71 4 -2.0555908960419487 1.5148185780470202 5.1146019990327485 1 0 0
60 1 -2.075040344149251 -0.26433484508311694 6.916073301308861 1 0 0
70 1 8.737260439824933 -0.3141181344800308 6.946652821054996 0 0 0
69 5 8.692922669937033 -2.076117183759845 5.1350139752973885 0 0 0
72 2 -0.2099536090268789 3.311049118979111 5.124473396860279 0 0 0
73 2 -0.2639243295758572 1.506517443713503 6.889803661647508 0 0 0
75 2 1.531774310057859 1.5435975851851327 5.098848001575835 0 0 0
78 3 1.5405945487143176 3.2438786652931366 6.8968921453844665 0 0 0
76 2 3.2944202784098873 3.319347221373905 5.1187486785769 0 0 0
77 1 3.33213604299151 1.5368522038854144 6.894438231491957 0 0 0
81 3 6.9397163126031645 1.468327002772447 6.95530560187777 0 0 0
79 5 5.085893242993558 1.5345091819928511 5.15127789409863 0 0 0
82 2 5.1117634242051375 3.30513777694306 6.920034705465752 0 0 0
80 5 6.912265830129417 3.301450545278294 5.1367305871857285 0 0 0
84 5 8.772429278763752 3.3255793593110115 6.901299286699662 0 0 0
83 4 8.77521318929151 1.4765492526233321 5.150924487504696 0 0 0
86 3 -0.25276516581308806 -0.25225894588675907 8.746801161170733 0 0 0
88 5 3.28488415417992 -0.1983348610242592 8.677017374222808 0 0 0
57 3 -2.048363863125619 -1.981519937468458 5.164247732221039 1 0 0
90 1 6.935477542733338 -0.29317512030500414 8.701176420278982 0 0 0
104 4 5.12195544811794 -0.25633053000827954 10.436412041143338 0 0 0
103 1 6.896234507315909 -2.0818329137073563 10.466499440143053 0 0 0
91 2 8.701233298430406 -2.062123409573287 8.736592905575318 0 0 0
105 1 8.680688847282045 -0.28381921676962324 10.470247620961024 0 0 0
93 5 -0.2770468090110367 3.290058146776505 8.718105400399175 0 0 0
95 4 3.3353317854672597 3.3010499669785536 8.688338858651983 0 0 0
94 1 1.5075282455501127 1.5236113088375505 8.709233155660304 0 0 0
101 3 3.344093413055971 -2.0819895604257637 10.474855809896413 0 0 0
97 3 6.8905807907452665 3.3098719581715894 8.705168331956056 0 0 0
85 4 -2.0711310594212797 -2.0826155366249175 8.71590244401256 1 1 0
96 2 5.127829691091007 1.5387817279910596 8.693455256848228 0 0 0
112 2 8.701144222193145 3.336814551450151 10.470044185915135 0 0 0
98 3 8.72816359314198 1.4813934547697014 8.799920198575064 0 0 0
74 3 -2.0290465972310527 3.311619104114748 6.846127511055196 0 0 0
59 4 -0.2597828945744226 -2.0493169174616246 6.908321245904161 0 0 0
110 2 6.910167361166749 1.5327548429607014 10.470304637918861 0 0 0
92 5 -2.0768573115807207 1.4690461807755881 8.706628318668864 1 0 0
107 2 -2.0835724370127067 3.309676660597269 10.481787171559926 0 0 0
109 5 1.5601968539781221 3.2823664937857053 10.462154843885008 0 0 0
108 2 3.3236778563459817 1.5267437186826258 10.499156631327915 0 0 0
100 1 -2.071451099564147 -0.2662339644670412 10.462759402990265 1 0 0
114 4 -0.283639781578299 -0.29878080091559767 12.267143225284466 0 0 0
118 3 3.3627555554250836 -0.2876973053451067 12.311681377167512 0 0 0
102 4 1.526926423727856 -0.2681377841933269 10.525665087097362 0 0 0
117 2 1.5485229188703487 -2.0773115480202464 12.305590712660916 0 0 0
122 3 6.8866795899705755 -0.3001201804103616 12.227606676759592 0 0 0
121 2 5.116273343578552 -2.0561350291988614 12.286414923916135 0 0 0
125 4 8.7050303541799 -2.0787877369755434 12.244614196158127 0 0 0
140 3 8.724259259463041 3.3624689198290003 14.094958325953842 0 0 0
128 3 -0.3252671082707136 3.3637107184410326 12.284838580434446 0 0 0
106 2 -0.30650021439239244 1.5281732577737883 10.508041613185439 0 0 0
113 4 -2.0660383473515367 -2.06032042233646 12.254995738028093 1 1 0
131 5 1.5421546580694871 1.538745640135768 12.304572744987986 0 0 0
132 2 3.3302356760171397 3.301722344720516 12.313831039156753 0 0 0
116 4 -2.0633683415536197 -0.2951600523788927 14.083855042389855 1 0 0
136 1 6.879602268036167 3.339702581688671 12.245014931171964 0 0 0
135 4 5.112291638058394 1.5187365111551157 12.313700779831413 0 0 0
154 4 8.71255861864975 1.5362244895443824 15.896677397215578 0 0 0
139 4 8.694711652291526 1.5495752716918971 12.231464710720589 0 0 0
142 3 -0.2737667295204743 -0.34692274508892007 15.885100491204515 0 0 0
115 1 -0.22444136824213615 -2.080626576391636 14.115550826069544 0 0 0
141 2 -2.038291368354521 -2.0504713966626387 15.913834131995593 1 0 0
144 3 3.2730777243642435 -0.2534319035239746 15.963463736216013 0 0 0
120 3 1.525345528016065 -0.3227749767942219 14.090207346212964 0 0 0
143 1 1.5681164545928992 -2.0756556565333875 15.910099689259024 0 0 0
145 3 5.074914061167837 -2.0748703685193375 15.977770942722433 0 0 0
124 2 5.117102481539512 -0.26501970501402355 14.111288267177276 0 0 0
146 3 6.922342191673765 -0.2665054982952563 15.90979955297306 0 0 0
123 3 6.823883651486231 -2.063148992200195 14.092028373643974 0 0 0
126 5 8.71352773226138 -0.27578300697237007 14.0579894860334 0 0 0
147 2 8.696462492401217 -2.0251395421187945 15.88883378971034 0 0 0
149 5 -0.28888461098420004 3.3198678408672593 15.926827568830706 0 0 0
129 5 -0.3024181747503569 1.5172321254726853 14.123646799515608 0 0 0
150 2 1.534544022114937 1.4919135723451085 15.905693279781097 0 0 0
133 1 3.3151851930020273 1.5177288593037561 14.11971911939686 0 0 0
134 5 1.5446907447070917 3.3149808496839044 14.14079611796512 0 0 0
151 2 3.3069048900423157 3.29514866725025 15.918428654919436 0 0 0
138 1 5.074817726261456 3.313938422673245 14.095933829160218 0 0 0
152 5 5.084452731818669 1.5097947842754318 15.92499004957542 0 0 0
137 5 6.890400735074962 1.6060646918554644 14.069069032757133 0 0 0
153 3 6.8707394135574305 3.3150190217360755 15.935457142014789 0 0 0
800 2 10.492781264775866 -2.0549066739146413 14.046278211770051 0 0 0
148 1 -2.0639351060649425 1.5284182964086526 15.89092131784126 1 0 0
827 5 10.484829448609602 -0.3265928908522687 15.892752322141167 0 0 0
111 3 5.087895750099914 3.2731479307710867 10.544983760597768 0 0 0
170 3 -0.13645725455637348 -0.24282564549163405 19.580830223905767 0 0 0
155 3 -0.21600814547147223 -2.0234357778800174 17.74119378982127 0 0 0
158 2 1.5510537676922331 -0.28676562242427966 17.699533184251155 0 0 0
174 4 3.315550095110027 -0.27522353046292963 19.491674016009608 0 0 0
172 4 -2.053511130485113 -0.29880829221901695 21.34050444188619 1 0 0
160 4 5.121231530766584 -0.25114126178756685 17.759661454137234 0 0 0
178 1 6.8691037728494635 -0.25942422857604713 19.536271272509726 0 0 0
856 5 10.479130062582962 -2.0704791499735946 21.29545372520273 0 0 0
159 4 6.923115229879901 -2.0711624460962614 17.742880338808362 0 0 0
161 3 8.64407826611558 -0.25715422346031847 17.77017993677498 0 0 0
841 5 10.470564403180353 -2.0600083974430645 17.79883840161748 0 0 0
162 5 -0.27664625193528686 1.4726956538657434 17.686945196733696 0 0 0
184 4 -0.23803980283948184 3.293063385652108 19.500466843940142 0 0 0
165 5 1.5732288994680381 3.361175532780631 17.694010712372727 0 0 0
187 2 1.5494984740201165 1.5120850729131732 19.502368452880376 0 0 0
164 1 3.280666355971049 1.525673443167436 17.69711846425341 0 0 0
188 4 3.348473345116719 3.315089575865761 19.50224862130124 0 0 0
192 5 6.842949429089221 3.2987699875146896 19.532191218495303 0 0 0
167 4 5.093533766875486 3.3073854756079077 17.727105158074846 0 0 0
191 1 5.16579057785077 1.5352202652028104 19.5284514507826 0 0 0
166 1 6.918355226592257 1.5314212406276415 17.713764082907694 0 0 0
869 4 10.495746634705228 3.326139018242825 19.520124599283793 0 0 0
848 5 10.496439868163899 1.5386569351223387 17.711641361193188 0 0 0
195 4 8.679971793941965 1.5262728686097038 19.548547330525793 0 0 0
168 5 8.688273317279085 3.3357935114487276 17.69664859273566 0 0 0
2 5 -0.20119267571609906 -0.2830465625381313 23.042988366847204 0 0 0
176 1 1.5514599529377586 -0.2661179664372761 21.310705569855827 0 0 0
175 4 3.310870996842622 -2.076463579080544 21.296871754501247 0 0 0
183 5 -2.025332958889816 1.4978539174342311 19.554823263512628 1 0 0
179 5 6.882143409318309 -2.029237249449548 21.298944991566717 0 0 0
180 4 5.1106274732824355 -0.2875987424795659 21.310758328207537 0 0 0
182 1 8.673865721921816 -0.25652114307523777 21.33229943779047 0 0 0
186 1 -2.033867680848603 3.3189697750815084 21.31320174442 0 0 0
16 5 -0.2519547615956936 3.297056476777931 23.047914009136203 0 0 0
185 1 -0.2176495714415058 1.5331663119360162 21.321306546336604 0 0 0
15 5 -2.0586947428194478 1.5132538807176794 23.048354376104367 0 0 0
189 3 3.3667306430544732 1.5193750348031172 21.308978718410554 0 0 0
190 5 1.575286566568834 3.289871781961567 21.306265863674128 0 0 0
181 2 8.698020282380522 -2.0287363159682212 19.558450305410123 0 0 0
194 2 5.10860236054867 3.3229304434410154 21.31966259621488 0 0 0
193 1 6.875444866949784 1.5154052233450384 21.34396583323203 0 0 0
196 3 8.679239963727616 3.289372841179308 21.341518045100216 0 0 0
163 1 -2.065071096209966 3.2920366279114286 17.71102568869929 1 0 0
855 2 10.459118295375918 -0.2610193475818932 19.54757942148201 0 0 0
156 1 -2.052350979053969 -0.2506592501088428 17.703396608081256 1 0 0
169 3 -2.069293703776129 -1.9701402933475927 19.468682296574933 1 0 0
199 4 -0.2036367514462175 5.099445419817554 -0.3344683710829741 0 0 0
374 3 3.27733905671273 10.483858442385756 1.476909212484191 0 0 0
200 1 -2.0608272413691604 6.864103024033748 -0.3438420230492724 0 0 0
218 3 -2.0309360825233504 5.114628841458272 1.4900010981917735 1 0 0
204 2 1.549182979959365 6.929237622990009 -0.3118122611744693 0 0 0
203 3 3.301170441145238 5.1017146238365 -0.2447563560582326 0 0 0
205 4 5.114889410239267 5.116099746875106 -2.051833155032006 0 0 0
208 4 5.128756191217439 6.92094448871628 -0.2624608691523583 0 0 0
207 1 6.914936538974609 5.083891010494367 -0.26608261454591825 0 0 0
206 1 6.9008856969735355 6.898492746569979 -2.019756310518748 0 0 0
210 4 8.660713375427948 6.9218565851613425 -0.24467840786014486 0 0 0
209 4 8.665119705039192 5.105827915710231 -2.0550670677483365 0 0 0
212 3 -0.3056996492619757 8.604450475451866 -0.3709412804106322 0 0 0
214 2 3.2797061784439916 8.739844125975242 -0.2927049453862461 0 0 0
216 1 6.918163772339385 8.761121622531917 -0.29823810183582367 0 0 0
349 1 5.113943842922451 10.491341688963923 -0.2576475686313404 0 0 0
215 3 5.169353304339689 8.76451057854606 -1.9967102236452927 0 0 0
884 4 10.497898616749834 5.100474106085499 -0.2714486667927119 0 0 0
897 3 10.437620980046635 8.71138624951855 -0.2165624862389874 0 0 0
217 1 8.663059273152175 8.724494254766968 -2.0641901863230516 0 0 0
219 3 -0.19786396312678106 6.825601744549104 1.478938956486716 0 0 0
220 2 -0.20870871346049924 5.069667781100093 3.3376319583947263 0 0 0
221 5 -2.0092980263391125 6.827050318984445 3.311484448904972 0 0 0
224 2 3.2922816042765035 5.097351931503644 3.329974101464972 0 0 0
223 4 3.30605198870956 6.924001126733179 1.5354545445497312 0 0 0
225 3 1.5138877463321265 6.843987382027949 3.3736411913141002 0 0 0
222 2 1.5489293247062792 5.071060936049613 1.5358017881985517 0 0 0
228 4 6.8798829992459565 5.119499747825391 3.3196433973511588 0 0 0
229 1 5.054224366236194 6.9571009438791505 3.364760191155545 0 0 0
226 4 5.109214438119961 5.123298223797802 1.5331413387254498 0 0 0
227 4 6.875746041797963 6.933861929660741 1.5450278694605555 0 0 0
231 1 8.713274481549629 6.928273752823627 3.282031951842317 0 0 0
230 5 8.697662474521001 5.119916979522021 1.5374424290492654 0 0 0
233 3 -0.24862085649399832 8.663932863661696 3.389367280135439 0 0 0
232 4 -1.9877657552649066 8.64332587172274 1.5083229386455128 0 0 0
235 2 3.2596043610571876 8.719644640699249 3.348789609109335 0 0 0
234 3 1.5163796655094668 8.687385583955754 1.4944519619412158 0 0 0
375 3 1.490988393478641 10.480582077298129 3.3936656655393893 0 0 0
237 2 6.8948321876911685 8.73766987887191 3.2938705424050454 0 0 0
236 4 5.097183255896181 8.731194128516485 1.5221056925967458 0 0 0
883 4 10.454153961725266 6.917632555265709 -2.0404819143202806 0 0 0
918 5 10.46173383181988 8.71201591650841 3.216516626431067 0 0 0
238 1 8.673546241157553 8.735540068020663 1.5358748062907832 0 0 0
346 3 3.2888270432320406 10.496485776941551 -2.0208699772184673 0 0 1
240 2 -0.23917758635697117 6.893706746095448 5.160279710897834 0 0 0
241 5 -0.23559468113583226 5.153951625608846 6.928882934773554 0 0 0
242 2 -2.048112852658691 6.9145779267685725 6.9556752588701745 0 0 0
243 2 1.532070260358174 5.095950351733868 5.114182324757584 0 0 0
246 1 1.5177583279452818 6.925568829766083 6.920543764440979 0 0 0
244 5 3.315045832357541 6.9375147384381926 5.138307344402203 0 0 0
245 4 3.3040191581632268 5.121871429848252 6.927231662830733 0 0 0
247 4 5.090013115137852 5.111135888834209 5.1102303665728845 0 0 0
250 4 5.123787125654552 6.961117317954805 6.907311729133601 0 0 0
248 5 6.868908623327281 6.981166680294829 5.051975084100512 0 0 0
249 4 6.91234058521154 5.1320359593501 6.882734532996593 0 0 0
251 3 8.762050924967324 5.136570659926828 4.999988601706775 0 0 0
252 4 8.672290756614343 6.921280675510457 6.894753686069112 0 0 0
254 1 -0.2642290776791166 8.692959203058646 6.949775254526439 0 0 0
253 4 -2.040098076221125 8.67101914780754 5.148676468636876 0 0 0
255 2 1.5108551552295986 8.693090741910547 5.157835991286492 0 0 0
256 1 3.2826886899369683 8.706527251734336 6.908880636689899 0 0 0
403 5 1.5133209880701202 10.475103780537049 6.948137179221275 0 0 0
404 5 6.88551541354436 10.486078733871228 5.092844758445584 0 0 0
257 1 5.077579603537204 8.733592556462334 5.09312974083527 0 0 0
258 1 6.894648365035706 8.735376640719082 6.903658579209833 0 0 0
939 3 10.47430636096668 8.68639188733711 6.914922183240986 0 0 0
259 4 8.688948526515153 8.721507781051912 5.0654676328590975 0 0 0
261 1 -0.26831385192411333 6.927611514995042 8.703847679498294 0 0 0
260 2 -2.064957480118227 5.1258796055804225 8.69989408614478 0 0 0
262 2 1.5097157664565906 5.143883134977948 8.699523276945182 0 0 0
263 5 3.261199615624706 6.985032153098685 8.721317321420669 0 0 0
273 4 3.297673113252045 5.127367052691429 10.472129957418284 0 0 0
264 5 5.130491169284191 5.16546865665585 8.689459815805165 0 0 0
265 1 6.894875620570767 6.9459076989085435 8.703223656083653 0 0 0
405 3 5.02781310765634 10.454358902669506 6.868870101279041 0 0 0
276 1 5.076031490089154 6.935673425157532 10.473808920958412 0 0 0
270 2 8.698906323168455 8.691056970933856 8.678289995590495 0 0 0
266 4 8.695839190429036 5.131290586612893 8.717738715712446 0 0 0
277 3 8.740212233250235 7.001384693071316 10.49311297936172 0 0 0
267 2 -2.043034553026617 8.700293810039584 8.720078778534191 0 0 0
429 4 3.3032450846861385 10.498279180338928 8.725212654321195 0 0 0
268 1 1.4978293981320925 8.705476999966072 8.713808807135512 0 0 0
406 5 8.705925070104412 10.499147613753893 6.902405437407829 0 0 0
269 2 5.089468317268461 8.714574439692989 8.70319561657511 0 0 0
280 3 6.854686987059851 8.635062843285773 10.468285908288635 0 0 0
430 3 6.854942549784314 10.464040664708344 8.656561761450975 0 0 0
956 1 10.495635651903966 5.124840332387722 10.4918070096947 0 0 0
401 5 -2.0212588455933242 10.499112664312147 6.949541240241193 0 0 0
239 4 -2.0565108833782055 5.122569007478954 5.133073095057242 1 0 0
400 2 -0.24313151886359016 10.488099014038358 5.184141622479613 0 0 0
271 4 -0.2839745733022984 5.131737847343079 10.454418237072108 0 0 0
274 1 1.5019110316553204 6.946361842022625 10.496597719514584 0 0 0
272 2 -2.0807738610327995 6.922034670279842 10.473731668526815 1 0 0
282 5 -0.26271674539025947 6.860186727466543 12.30016920179935 0 0 0
486 1 6.886915811133745 10.483949031955017 15.894548963040508 0 0 0
295 2 -2.0774682236745896 8.697518232211085 12.278757504792338 1 0 0
285 3 1.5358812436516234 5.080560204792639 12.28957177323415 0 0 0
286 3 3.3042535736538916 6.937064190311109 12.26913420100727 0 0 0
484 2 -0.25008722487279345 10.49528008615422 15.88621282392335 0 0 0
289 2 5.060244946977703 5.107252211429245 12.277858545842985 0 0 0
290 4 6.862334831485798 6.94800991447725 12.321987602265246 0 0 0
293 3 8.731812454729255 5.069483887720974 12.25192043333322 0 0 0
278 3 -0.2671759404804956 8.67925029651516 10.510360344315156 0 0 0
312 4 8.70665585902297 8.655179164648452 15.919692286832145 0 0 0
1142 3 10.482331587767618 10.477219574606305 12.385027080281896 0 0 0
279 2 3.2869415871465972 8.7304429406518 10.519998532460058 0 0 0
297 2 1.534919007115 8.700823873074997 12.288073905940216 0 0 0
299 5 5.051572527823861 8.704897965759217 12.308653415388175 0 0 0
301 1 8.714559219931893 8.70242715486644 12.367558397275982 0 0 0
310 2 1.5136705383840576 8.717807193202724 15.90674412477619 0 0 0
283 1 -0.27796004602512475 5.092868197299501 14.131740872960398 0 0 0
303 5 -0.2676098751296712 6.85613760160921 15.907545428451627 0 0 0
300 5 6.87421377671648 8.696546805403552 14.134487371265033 0 0 0
302 3 -2.0695499673489515 5.089195143660445 15.912531407644959 0 0 0
288 5 1.5187521302038625 6.910924417429336 14.135062226303013 0 0 0
304 1 1.5298482319378572 5.095939711674055 15.90072028497215 0 0 0
287 5 3.361067127869056 5.095762748291415 14.115590406159189 0 0 0
305 4 3.325483294362266 6.930369775409438 15.901128339720604 0 0 0
291 3 6.809492658713365 5.069546249491132 14.009997386417082 0 0 0
292 1 5.077662225339763 6.922771930260318 14.097546356564623 0 0 0
306 5 5.092833680052015 5.1042726169575925 15.924532689959555 0 0 0
307 3 6.837336518760525 6.943365207008672 15.940254552652611 0 0 0
298 2 3.29131598848391 8.715181002330953 14.10703312698288 0 0 0
308 4 8.65662707880749 5.159997554763 15.89496462777736 0 0 0
294 3 8.715474980440533 6.9026983432620685 14.062881683442999 0 0 0
296 4 -0.2755342549837021 8.696528801324483 14.083064369543768 0 0 0
459 3 1.4896521638236366 10.4845819194312 14.045190509942481 0 0 0
311 1 5.097452685416947 8.710560739549734 15.885756783518632 0 0 0
485 5 3.2854532470132507 10.465602167221494 15.95053172609021 0 0 0
275 5 6.8734452985964065 5.189892529181205 10.537044662375358 0 0 0
445 5 8.693073913505977 10.370961984797136 10.533131942317457 0 0 0
313 2 -0.29270674451740564 5.118492298824194 17.716270247066085 0 0 0
324 2 -0.28056154297107916 6.912111648169323 19.48843920103163 0 0 0
323 3 -2.0014386617217546 5.105111976888539 19.520697466277603 0 0 0
314 1 -2.0626272620606447 6.894496334764098 17.71407355606574 0 0 0
316 3 1.5504858363827254 6.843982161351524 17.690647372933554 0 0 0
327 4 1.5561414933267812 5.140702324034281 19.530290098591315 0 0 0
315 1 3.351661790351931 5.141166506848492 17.70365013272602 0 0 0
328 2 3.3475581027335997 6.913921874445296 19.52442981307734 0 0 0
318 3 5.086385793369432 7.004752531654968 17.78915361851689 0 0 0
331 1 5.107383079415135 5.150886446171219 19.546283966141377 0 0 0
317 4 6.874617497602217 5.151772036145359 17.749576583211233 0 0 0
332 2 6.881030394948525 6.931141334554566 19.53488453404186 0 0 0
319 1 8.707883066279775 6.9063813938201415 17.74853243517438 0 0 0
335 5 8.699611588384245 5.156002741414448 19.508588821037222 0 0 0
198 2 -0.23572980004683985 6.930736589435733 23.057496956064902 0 0 0
501 4 8.671676046569843 10.491564444402053 17.677757804930646 0 0 0
337 1 -2.059807327217767 8.707940358716659 19.479850676338984 0 0 0
320 4 -0.2739347252616301 8.691962217317176 17.675871664337887 0 0 0
500 5 5.168127929888324 10.426598897556067 17.663148939693887 0 0 0
339 5 1.520822587741461 8.683696776259236 19.499219002790426 0 0 0
321 1 3.2810647906323696 8.701754037297597 17.721029973182464 0 0 0
1005 3 10.4853672702433 8.667007736608836 17.74478512274697 0 0 0
516 2 6.8667648525636835 10.484141064037868 19.48266448410238 0 0 0
341 1 5.1174400262346245 8.714927204273078 19.513316129282007 0 0 0
322 1 6.9046598017724845 8.669357901972285 17.713832658271656 0 0 0
343 5 8.681813615093155 8.696307021302273 19.47651290132409 0 0 0
325 3 -0.22829845700891638 5.1747222968200415 21.302674124497813 0 0 0
330 1 1.541990426970078 6.950893706965727 21.280308707481392 0 0 0
329 2 3.3667198502654383 5.140136449627577 21.29657682984126 0 0 0
201 4 1.6019783842576079 5.135327896396424 23.051199720485084 0 0 0
202 5 3.3205358551829844 6.992508339685981 23.05751923074241 0 0 0
333 2 6.874292165640833 5.1409701178258 21.2956442618684 0 0 0
334 1 5.132988452048599 6.927000047123182 21.319075728213946 0 0 0
336 5 8.681720780520019 6.913102181999726 21.348970515581033 0 0 0
338 2 -0.263116813535137 8.703467563689639 21.29289435575863 0 0 0
326 4 -2.0712270527252272 6.959062252614643 21.285233898148675 1 0 0
340 4 3.341342421126573 8.75353128541341 21.282279627674438 0 0 0
213 2 1.492473327971395 8.711626094775971 23.06784406221146 0 0 0
342 3 6.855508253873232 8.740056786905319 21.327451186848045 0 0 0
1023 4 10.458745949675341 8.723209064186499 21.304664616667708 0 0 0
512 4 -0.2651382374329729 10.478533040387848 19.485144992515607 0 0 0
513 2 -2.072936272471903 10.450618872004366 21.294983976341797 1 0 0
515 2 1.5180069761224828 10.497209004036845 21.312381796659743 0 0 0
514 3 3.332819382059656 10.485422440761983 19.41419256450722 0 0 0
499 1 1.5163693417383255 10.494081121635634 17.676170255201853 0 0 0
344 1 -0.2790995001528555 10.496594987353818 23.028057115591945 0 0 0
197 5 -2.080549246485411 5.1559262832941855 23.044234467812014 0 0 -1
211 1 -2.0390235876979403 8.701454952348413 23.08114141843155 1 0 -1
353 3 -0.2584134317918928 12.392960818925582 -0.35448851637691625 0 0 0
357 1 3.267074459487351 12.293486760360224 -0.27151326886743965 0 0 0
347 5 1.4319768061204006 10.522320884038091 -0.3399521207380679 0 0 0
361 2 6.914205029563916 12.278263418340522 -0.22877723107254874 0 0 0
1065 5 10.48868939694866 14.06844483028462 1.4851294578932295 0 0 0
359 4 5.1241973856444885 12.266455352789269 -2.0021804782930444 0 0 0
363 4 8.66840755183024 12.315566173414329 -2.041901539567691 0 0 0
1038 1 10.48883088967587 12.294584564070512 -0.26344670317827146 0 0 0
392 4 8.72721508655146 14.090449547204587 3.3213644769483435 0 0 0
366 5 -0.23642647844936693 15.909597970241933 -0.31964087563625304 0 0 0
399 3 8.72593376549071 15.904365860314886 1.5224196214321846 0 0 0
358 2 1.5225029055436154 14.104040560293235 -0.2775747212430903 0 0 0
368 4 3.3090395719533063 15.915503063031966 -0.28421342771974745 0 0 0
390 4 5.1216589831189 14.098068385463854 3.2883330686662386 0 0 0
362 5 5.096356091376091 14.097325870549847 -0.19180499199912596 0 0 0
370 4 6.888282580440292 15.927608664207185 -0.2390992635271742 0 0 0
360 4 6.879559317797316 14.102381296317288 -2.033101620280473 0 0 0
364 1 8.686154514551541 14.097307832562347 -0.2378052106640907 0 0 0
371 3 8.662341032910724 15.906686544366721 -1.9940434145314228 0 0 0
1037 3 10.476894812617731 14.134250449788354 -1.9404845396051504 0 0 0
372 3 -0.265105966827097 10.517158723416383 1.5141346636021051 0 0 0
381 3 -0.2436670853949423 12.365390738834233 3.376337689315391 0 0 0
379 5 -2.0429710973332624 12.383051473630026 1.540550284639758 0 0 0
373 5 -1.9540053835505304 10.505963976449163 3.358363023340657 0 0 0
383 4 1.515928504230195 12.33379512411719 1.5357532661890125 0 0 0
385 3 3.284985576229211 12.349742735358147 3.3398043478091846 0 0 0
398 4 6.901866752148874 15.883057610173289 3.3064963262328684 0 0 0
389 3 6.9128981521933675 12.351936640644446 3.2959369847650675 0 0 0
387 4 5.087126594399089 12.279354644564439 1.4932429170024941 0 0 0
388 1 6.919585009209078 14.089243339309807 1.4912978926516414 0 0 0
1058 2 10.473997931901968 10.547366758206575 1.5076985355033603 0 0 0
391 2 8.686280003134891 12.29417490726862 1.5133543491581831 0 0 0
397 1 5.104641626812371 15.935439214364818 1.5100501649359939 0 0 0
378 2 8.69370327230687 10.537530868762762 3.268995744559702 0 0 0
394 2 -0.24743792584902416 15.916114246172235 3.3716027515524103 0 0 0
380 5 -0.2502097939598159 14.158954741498238 1.5882712408239597 0 0 0
393 4 -2.0718189809422016 15.913835922182027 1.5460379319236344 0 0 0
384 1 3.298428405644882 14.11113842655271 1.5007960977048822 0 0 0
395 3 1.5573782861011878 15.895909379766355 1.5267447006247394 0 0 0
396 5 3.378604298531475 15.892304591998414 3.25909354447733 0 0 0
386 1 1.5644618164677242 14.138856166721267 3.3451793429941175 0 0 0
382 1 -2.078599641213952 14.148325496948626 3.34384734422233 1 0 0
377 4 5.063373980998595 10.520957735201975 3.3321714110940066 0 0 0
348 1 6.90130824413516 10.501168125383954 -2.0483528438821454 0 0 0
345 3 -1.9838762715180778 10.507043211936631 -0.3455390194172995 1 0 0
1030 3 10.445512540572137 10.509894442403708 -2.0263616532729123 0 0 0
376 2 6.911588068846097 10.505538282657252 1.5311968015615378 0 0 0
350 3 8.647306138837303 10.513422423210532 -0.2311944405497465 0 0 0
356 5 3.262674230900417 14.046208484649549 -2.0465114415031884 0 0 1
355 1 1.5002765615134757 12.294311686996934 -2.075462498474284 0 0 1
367 1 1.5096789063710478 15.920636487596756 -2.052083483095984 0 0 1
409 1 -0.27432271053675505 12.307895696955068 6.955263045324389 0 0 0
407 4 -2.054684321718224 12.322810547573129 5.139915303542669 0 0 0
1118 3 10.481484217016357 14.147964179625648 8.690348863635823 0 0 0
436 5 6.961159733648542 14.105794140761198 8.708428635977064 0 0 0
411 5 1.4919197937647284 12.353334380176614 5.194136551097371 0 0 0
413 4 3.312088380290518 12.317844531949714 6.9483120317960285 0 0 0
455 4 6.88848784274548 15.864904714330978 10.485180932283551 0 0 0
415 2 5.0901069691174925 12.305284136540616 5.10323418481313 0 0 0
417 4 6.875283284119245 12.299219059317302 6.88184211160019 0 0 0
434 1 3.3084838270713695 14.097946964922128 8.704933920500228 0 0 0
419 4 8.724603783106618 12.321331423586539 5.103032420429835 0 0 0
441 1 8.706275738795389 15.861114535793902 8.715433350441538 0 0 0
440 2 5.094323800851092 15.888010512824835 8.715069786474956 0 0 0
408 3 -0.2962040187920917 14.161963757342464 5.117716829771356 0 0 0
422 2 -0.2709173151080477 15.88369669182091 6.923421032504869 0 0 0
410 3 -2.042084954444059 14.162898911042616 6.944475081044892 0 0 0
421 2 -2.0663794776629083 15.895727530668019 5.1165648329102265 0 0 0
414 1 1.4997369927431419 14.110759177439533 6.954779064981606 0 0 0
423 3 1.5061251823070458 15.862600149051634 5.156312760131625 0 0 0
412 5 3.3257433421028426 14.131033448089214 5.144185176418814 0 0 0
424 2 3.313973947613704 15.869051002305408 6.942538413531005 0 0 0
426 5 6.906916723977228 15.922788760940898 6.894386980016188 0 0 0
418 5 5.109406529846244 14.090176521456913 6.93575790887628 0 0 0
425 2 5.115580073918664 15.90574667821816 5.129191745807188 0 0 0
416 1 6.8532086697194945 14.10553463411956 5.127830814646521 0 0 0
427 3 8.749639678861888 15.865673187799128 5.074406849407046 0 0 0
420 4 8.721197503082177 14.114733196644144 6.857721238877081 0 0 0