LAMMPS data file via write_data, version 2 Aug 2023, timestep = 6667, units = metal

1372 atoms
5 atom types

-2.0842303644744757 23.084230364474323 xlo xhi
-2.0842303644744757 23.084230364474323 ylo yhi
-2.0842303644744757 23.084230364474323 zlo zhi

Masses

1 58.933
2 58.69
3 51.96
4 55.847
5 54.94

Atoms # atomic

4 4 -2.0670774089523607 -0.29427267228467435 -0.30427995282778775 0 0 0
8 2 1.5455539123054898 -0.2599877445669042 -0.279611038221846 0 0 0
46 4 -2.064524514681257 3.3401635974359105 3.364800174864126 0 0 0
10 2 6.885166700961979 -0.25064141184338723 -2.0497783387295825 0 0 0
12 2 5.133651304715761 -0.27220780684669177 -0.2813129985540023 0 0 0
56 3 8.814710419335333 3.2404068404916595 3.329668004774009 0 0 0
14 4 8.690161487348922 -0.28855145346293515 -0.27301838838736786 0 0 0
17 4 -0.26027718816850814 1.5127521039289016 -0.2888944820497101 0 0 0
22 3 1.5987514465092425 3.250331771207493 -0.29263437480796406 0 0 0
21 1 3.3333822550732473 1.5301086836819922 -0.27280387390930244 0 0 0
24 4 6.88544610250443 3.300403354192226 -2.0318698915725704 0 0 0
25 2 6.889385242697124 1.5053548984450387 -0.27384585675754347 0 0 0
26 1 5.0814180891823755 3.3004944867190735 -0.25274455648789396 0 0 0
702 3 10.498966841192306 1.522526682648968 -0.2869969918883241 0 0 0
28 2 8.688714264039094 3.27020448040223 -0.2763398955153713 0 0 0
31 1 -0.25976248793996487 -2.0750583489710053 3.3303436154853516 0 0 0
32 5 -2.030149271300084 -0.2615289959010316 3.3535926288820694 0 0 0
30 5 -0.2130848384346316 -0.24070257131194703 1.533735422970033 0 0 0
36 5 1.5309196560326843 -0.29474197114954104 3.3254977040632507 0 0 0
34 4 3.334768471841239 -0.2960264529055636 1.4816256163742012 0 0 0
38 4 6.876520175928602 -0.2678188423271442 1.5090936246377162 0 0 0
40 3 5.057887195765403 -0.35174198558928416 3.3020053302215766 0 0 0
42 5 8.739820313333052 -0.2657331871096151 3.2847066495140007 0 0 0
33 1 1.5052540922146933 -2.061690206812898 1.5286227105697854 0 1 0
44 3 -0.2062110555112123 3.278962049861569 1.5576498043712559 0 0 0
45 2 -0.22153348389700367 1.545733719026156 3.346150436266904 0 0 0
49 3 3.2816100349662323 1.5655272186704272 3.2878587673970214 0 0 0
47 1 1.5478359040685625 1.5271428715515358 1.5350626024045475 0 0 0
48 2 3.309627356751323 3.3135901319645016 1.5261154170718798 0 0 0
50 2 1.5450756897753504 3.319117304655388 3.3320276831988727 0 0 0
53 5 6.905761960321904 1.506070094581186 3.307076267523934 0 0 0
52 4 6.916866181964708 3.2764788919143517 1.4884036849877804 0 0 0
54 5 5.092074010065795 3.314891220982319 3.3035752999561248 0 0 0
51 2 5.083765754561208 1.52396511831375 1.4994058343907684 0 0 0
55 1 8.718957204040223 1.4978346928111674 1.5244984295875634 0 0 0
3 5 -0.21387358401267612 -2.058044876292815 -0.3004465531697347 0 1 0
9 2 5.1302771369668205 -2.0688629881008183 -2.035019857473478 0 1 0
6 4 3.3365672837502642 -0.2797924550836915 -2.0359783455770497 0 0 1
687 5 10.497460158595482 -0.2627432365675069 -2.0725266976114973 0 0 1
20 2 3.3622291686589607 3.297542762448164 -2.070159145473685 0 0 1
19 2 1.5763116669902235 1.5147886492424119 -2.0704055848676894 0 0 1
23 1 5.113186123516761 1.5291068084346278 -2.042345931895145 0 0 1
27 1 8.69044561183437 1.5090543497658369 -2.078805756570244 0 0 1
58 1 -0.2452550148693855 -0.25553332479344915 5.099246365179716 0 0 0
60 1 -2.074131806192344 -0.2634341491958202 6.917037770490631 0 0 0
57 3 -2.0474553251406125 -1.9806192414052408 5.165212201498304 0 0 0
64 4 1.527704037390683 -0.24356276892858125 6.880106051628445 0 0 0
62 4 3.3377746637295513 -0.29639531398198216 5.133173349024752 0 0 0
68 4 5.120680788107245 -0.2953051192464551 6.941251010701616 0 0 0
66 4 6.9154828993785555 -0.29944300594389933 5.129041371690486 0 0 0
100 1 -2.0705425614644284 -0.265333268557172 10.463723872085776 1 0 0
70 1 8.738168977543928 -0.3132174380638133 6.947617289868079 0 0 0
98 3 8.729072130992263 1.4822941512543588 8.800884667223588 0 0 0
72 2 -0.20904507121759125 3.311949814916947 5.125437865927438 0 0 0
73 2 -0.2630157916036919 1.507418139591491 6.890768130807033 0 0 0
74 3 -2.0281380592894487 3.3125197999696736 6.847091980116829 0 0 0
75 2 1.5326828478421346 1.544498281196147 5.09981247062904 0 0 0
78 3 1.541503086403837 3.244779361503633 6.897856614422859 0 0 0
76 2 3.2953288159411276 3.320247917646611 5.119713147589299 0 0 0
77 1 3.3330445807139237 1.5377529001225285 6.895402700528749 0 0 0
81 3 6.940624850342744 1.4692276991664235 6.9562700706908025 0 0 0
79 5 5.086801780614847 1.5354098783585393 5.152242363119439 0 0 0
82 2 5.112671961809238 3.306038473404572 6.920999174278967 0 0 0
80 5 6.913174367724253 3.3023512417564023 5.137695056144789 0 0 0
84 5 8.773337816705396 3.3264800557047445 6.902263755234184 0 0 0
83 4 8.776121726954084 1.4774499489364301 5.151888956294198 0 0 0
86 3 -0.2518566277146968 -0.25135825012712776 8.747765630384489 0 0 0
88 5 3.285792692216917 -0.19743416496574417 8.677981843127016 0 0 0
85 4 -2.0702225214700265 -2.0817148407620287 8.716866913155263 0 1 0
101 3 3.3450019514793228 -2.0810888644148617 10.475820278898674 0 0 0
91 2 8.702141836232325 -2.0612227132911927 8.737557374311647 0 0 0
90 1 6.9363860805997755 -0.29227442395826364 8.702140889078828 0 0 0
104 4 5.122863986216263 -0.2554298337045798 10.437376510025393 0 0 0
92 5 -2.075948773532419 1.469946876599612 8.707592787793297 0 0 0
69 5 8.693831207693028 -2.07521648735322 5.135978444091081 0 1 0
93 5 -0.27613827118321027 3.2909588428121856 8.719069869477709 0 0 0
109 5 1.5611053919723612 3.283267189936062 10.463119312845656 0 0 0
95 4 3.3362403231988345 3.3019506633972635 8.689303327543813 0 0 0
94 1 1.508436783535167 1.5245120049024727 8.710197624681472 0 0 0
96 2 5.128738228898106 1.5396824243800065 8.6944197256622 0 0 0
97 3 6.891489328606092 3.3107726546874203 8.706132800458988 0 0 0
110 2 6.911075899054133 1.5336555395166946 10.471269106535694 0 0 0
71 4 -2.0546823580694613 1.5157192738207164 5.115566468168186 0 0 0
107 2 -2.0826638990465507 3.3105773564769043 10.482751640569491 0 0 0
103 1 6.8971430453030695 -2.080932217539239 10.467463908917217 0 1 0
59 4 -0.25887435651016344 -2.048416221525077 6.909285715120211 0 1 0
105 1 8.681597385028091 -0.28291852042407606 10.471212089706183 0 0 0
112 2 8.702052760090723 3.337715248027676 10.47100865438209 0 0 0
114 4 -0.2827312431859238 -0.29788010501756906 12.268107694136674 0 0 0
118 3 3.363664093953324 -0.2867966091975466 12.312645846140612 0 0 0
117 2 1.549431457380569 -2.076410852113739 12.306555181574927 0 0 0
140 3 8.725167797431803 3.363369616618796 14.095922794381096 0 0 0
122 3 6.887588128005714 -0.2992194838632764 12.228571145657783 0 0 0
121 2 5.117181882033959 -2.055234333119234 12.287379392751967 0 0 0
113 4 -2.0651298091755583 -2.059419726383384 12.25596020693844 0 0 0
152 5 5.085361270141297 1.510695480948339 15.925954518456434 0 0 0
800 2 10.49368980232661 -2.05400597747224 14.04724268062494 0 1 0
128 3 -0.3243585701297876 3.3646114143810277 12.285803049332172 0 0 0
108 2 3.3245863944680845 1.5276444149898107 10.50012110012223 0 0 0
131 5 1.5430631964711605 1.5396463362115447 12.305537213851437 0 0 0
132 2 3.3311442141508527 3.302623041128549 12.314795507889096 0 0 0
136 1 6.8805108060446765 3.340603278351562 12.245979399708585 0 0 0
135 4 5.113200176223718 1.5196372076768696 12.314665248560564 0 0 0
111 3 5.088804288057263 3.274048627368731 10.545948229199634 0 0 0
145 3 5.075822599740376 -2.0739696727601036 15.978735411663127 0 1 0
139 4 8.695620190163236 1.5504759682760345 12.232429179206827 0 0 0
142 3 -0.2728581909953412 -0.34602204918411056 15.886064959873773 0 0 0
154 4 8.713467156344826 1.5371251863902948 15.897641866032421 0 0 0
115 1 -0.22353282980778869 -2.0797258804485397 14.11651529483993 0 0 0
144 3 3.2739862630518486 -0.2525312074237961 15.964428204925989 0 0 0
120 3 1.5262540666363846 -0.3218742808476002 14.091171815039269 0 0 0
143 1 1.5690249930999691 -2.0747549605902256 15.911064157933435 0 0 0
123 3 6.824792189632381 -2.0622482962116995 14.092992842523447 0 0 0
124 2 5.118011019966563 -0.26411900863417126 14.112252736158247 0 0 0
146 3 6.923250729772863 -0.2656048018353011 15.910764021803136 0 0 0
827 5 10.485737985931474 -0.32569219412430533 15.893716790976736 0 0 0
126 5 8.714436269966935 -0.2748823104357406 14.058953954712537 0 0 0
149 5 -0.2879760726806457 3.320768536938788 15.927792037510425 0 0 0
129 5 -0.301509636285508 1.5181328214264223 14.124611268282967 0 0 0
151 2 3.3078134282668654 3.2960493637016226 15.91939312365295 0 0 0
150 2 1.535452560621596 1.4928142684483996 15.906657748461905 0 0 0
133 1 3.3160937313935928 1.51862955568364 14.120683588202064 0 0 0
134 5 1.5455992829623713 3.3158815459337663 14.141760586675192 0 0 0
153 3 6.871647951650162 3.3159197185714318 15.936421610731966 0 0 0
138 1 5.075726264432974 3.314839119276581 14.096898297874334 0 0 0
137 5 6.891309273239619 1.6069653886255446 14.070033501465378 0 0 0
141 2 -2.037382830028566 -2.0495707006502477 15.914798600788988 1 0 0
116 4 -2.06245980315175 -0.29425935651737123 14.084819511196688 1 0 0
148 1 -2.063026567635056 1.5293189923117356 15.891885786543625 1 0 0
125 4 8.70593889196828 -2.077887040713989 12.245578664884832 0 1 0
147 2 8.697371030207695 -2.024238845831082 15.889798258494357 0 1 0
102 4 1.52783496215704 -0.26723708829790116 10.526629556076848 0 0 0
106 2 -0.30559167622145583 1.5290739536840996 10.509006082177908 0 0 0
170 3 -0.1355487161696121 -0.24192494957571958 19.581794692448717 0 0 0
169 3 -2.0683851655873733 -1.9692395973522392 19.469646765053394 0 0 0
155 3 -0.21509960698146144 -2.022535081892523 17.742158258475424 0 0 0
158 2 1.5519623061755432 -0.28586492637141214 17.70049765281833 0 0 0
174 4 3.3164586334194865 -0.2743228343508332 19.492638484658475 0 0 0
856 5 10.480038600194632 -2.0695784537029205 21.296418194195578 0 0 0
160 4 5.122140069069226 -0.2502405656137835 17.760625922798074 0 0 0
178 1 6.870012310802976 -0.25852353221467195 19.53723574137269 0 0 0
159 4 6.924023768092222 -2.0702617500091454 17.743844807694803 0 0 0
172 4 -2.052602592185689 -0.2979075963346245 21.34146891029769 0 0 0
161 3 8.644986803835057 -0.2562535268348581 17.77114440580516 0 0 0
855 2 10.46002683295839 -0.26011865116958827 19.548543890515145 0 0 0
181 2 8.698928820158818 -2.0278356197549776 19.559414774371618 0 0 0
162 5 -0.2757377135180581 1.4735963498156568 17.687909665332977 0 0 0
184 4 -0.23713126460466855 3.293964081692559 19.50143131250741 0 0 0
165 5 1.5741374376325172 3.362076229035974 17.694975181013344 0 0 0
187 2 1.5504070123130713 1.5129857689917394 19.50333292144466 0 0 0
164 1 3.281574894319378 1.5265741394785928 17.69808293295863 0 0 0
188 4 3.349381883183469 3.315990272309931 19.503213089959754 0 0 0
192 5 6.843857966885528 3.299670684037506 19.53315568751948 0 0 0
167 4 5.094442305002255 3.308286172279599 17.7280696268888 0 0 0
191 1 5.166699115821028 1.536120961569291 19.529415919527818 0 0 0
166 1 6.919263764539573 1.532321937167645 17.714728551845134 0 0 0
195 4 8.680880331698038 1.5271735651918643 19.5495117996256 0 0 0
168 5 8.689181855031947 3.3366942080925988 17.69761306182259 0 0 0
2 5 -0.2002841375173659 -0.2821458666037457 23.043952835443093 0 0 0
176 1 1.5523684912464348 -0.26521727047225985 21.311670038472958 0 0 0
179 5 6.883051947211773 -2.0283365531857847 21.299909460422064 0 1 0
156 1 -2.051442440698055 -0.24975855419868234 17.704361076724254 0 0 0
180 4 5.1115360112599895 -0.2866980461585602 21.31172279705156 0 0 0
175 4 3.3117795351213424 -2.0755628830249826 21.297836223280683 0 1 0
182 1 8.67477425967241 -0.25562044667797235 21.333263906768124 0 0 0
185 1 -0.21674103318247442 1.534067007840297 21.322271014769623 0 0 0
16 5 -0.2510462236166799 3.2979571727612953 23.04887847753495 0 0 0
841 5 10.471472940634728 -2.059107701108001 17.799802870450836 0 1 0
163 1 -2.064162557986627 3.292937323861655 17.711990157257734 1 0 0
189 3 3.3676391810670245 1.5202757310252526 21.309943187084507 0 0 0
190 5 1.5761951046367355 3.2907724781011223 21.30723033225644 0 0 0
183 5 -2.024424420672098 1.4987546134451244 19.555787731980264 1 0 0
194 2 5.1095108983195 3.3238311398489615 21.32062706507645 0 0 0
193 1 6.876353404751269 1.5163059197837745 21.34493030217538 0 0 0
848 5 10.497348405777945 1.539557631768528 17.712605830236722 0 0 0
196 3 8.68014850146749 3.2902735377565424 21.342482514230774 0 0 0
186 1 -2.032959142847254 3.3198704709085516 21.314166212857955 1 0 0
869 4 10.496655172426268 3.3270397147859425 19.521089068430772 0 0 0
15 5 -2.057786204612512 1.514154576553526 23.049318844487345 1 0 -1
199 4 -0.20272821357892326 5.100346115771126 -0.33350390244744077 0 0 0
217 1 8.66396781095917 8.725394951001446 -2.0632257171378967 0 0 0
200 1 -2.059918703376455 6.865003720064212 -0.3428775544511797 0 0 0
204 2 1.550091517485786 6.930138319294376 -0.3108477924738078 0 0 0
203 3 3.3020789785030797 5.102615320025591 -0.24379188716200947 0 0 0
918 5 10.462642369821726 8.712916612659196 3.2174810950963626 0 0 0
208 4 5.129664728495269 6.921845185008038 -0.2614964001531301 0 0 0
207 1 6.915845076495133 5.08479170696703 -0.2651181455375885 0 0 0
210 4 8.661621913231244 6.922757281427132 -0.2437139387350665 0 0 0
212 3 -0.3047911117724668 8.605351171806776 -0.36997681181647973 0 0 0
214 2 3.2806147158164634 8.740744822348566 -0.29174047644428097 0 0 0
346 3 3.2897355807944546 10.497386473356745 -2.019905508253417 0 0 0
215 3 5.170261841852645 8.765411274852482 -1.9957457545389172 0 0 0
216 1 6.919072309908722 8.762022318672123 -0.297273632766577 0 0 0
349 1 5.11485238047081 10.492242385181598 -0.25668309961016283 0 0 0
218 3 -2.0300275445022193 5.115529537356865 1.4909655671090034 0 0 0
219 3 -0.19695542546774752 6.826502440689776 1.4799034251398946 0 0 0
220 2 -0.2078001758728749 5.0705684770963435 3.3385964273432602 0 0 0
221 5 -2.008389488568376 6.8279510151285185 3.312448917858866 0 0 0
224 2 3.2931901416463054 5.098252627773859 3.3309385704237147 0 0 0
223 4 3.3069605258116885 6.9249018230432275 1.5364190134817792 0 0 0
225 3 1.5147962835031792 6.844888078288604 3.374605660210065 0 0 0
222 2 1.5498378621704658 5.071961632112683 1.5367662571173644 0 0 0
228 4 6.880791536691999 5.1204004441850355 3.3206078662787277 0 0 0
229 1 5.055132903524716 6.958001640165548 3.3657246600147785 0 0 0
226 4 5.110122975431615 5.124198920131821 1.5341058076592093 0 0 0
227 4 6.87665457929154 6.934762625865432 1.545992338415448 0 0 0
238 1 8.674454778826782 8.736440764171862 1.5368392753106077 0 0 0
231 1 8.714183019269008 6.929174449005542 3.2829964206541096 0 0 0
230 5 8.69857101224875 5.1208176757602635 1.5384068981146142 0 0 0
897 3 10.438529518063804 8.712286945637066 -0.21559801691352268 0 0 0
884 4 10.498807154631344 5.101374802325932 -0.2704841977475834 0 0 0
233 3 -0.2477123191545473 8.664833559966523 3.3903317490518137 0 0 0
232 4 -1.9868572175032966 8.644226567880503 1.509287407400199 0 0 0
374 3 3.278247594124569 10.48475913868832 1.4778736814244842 0 0 0
235 2 3.260512898290788 8.720545337018436 3.349754077950186 0 0 0
234 3 1.5172882026915497 8.688286280425006 1.4954164307712638 0 0 0
375 3 1.4918969306572452 10.48148277361134 3.394630134343569 0 0 0
237 2 6.895740725182385 8.738570575095157 3.2948350112501634 0 0 0
236 4 5.0980917932617125 8.7320948247006 1.5230701615087496 0 0 0
206 1 6.901794234570154 6.8993934429363755 -2.0187918413395294 0 0 0
205 4 5.115797947782171 5.117000443281556 -2.050868686085283 0 0 0
209 4 8.666028242789821 5.106728612191894 -2.054102598557158 0 0 1
883 4 10.455062499713815 6.918533251619135 -2.039517445118655 0 0 1
240 2 -0.23826904891740144 6.894607442277842 5.161244179969336 0 0 0
241 5 -0.234686143482863 5.154852321757229 6.9298474038467175 0 0 0
242 2 -2.0472043150328796 6.915478622816542 6.956639727909794 0 0 0
239 4 -2.055602345572661 5.123469703348522 5.134037564028193 0 0 0
243 2 1.5329787978511331 5.096851047958987 5.115146793732058 0 0 0
246 1 1.5186668654063595 6.926469526090725 6.921508233417133 0 0 0
244 5 3.3159543697101395 6.938415434772664 5.1392718132791515 0 0 0
245 4 3.3049276956450857 5.122772126259688 6.928196131803394 0 0 0
247 4 5.090921652549715 5.112036585284138 5.111194835504082 0 0 0
250 4 5.12469566312492 6.962018014354374 6.90827619792631 0 0 0
248 5 6.869817160892906 6.982067376663935 5.052939552865377 0 0 0
249 4 6.913249123028538 5.132936655876606 6.883699001583701 0 0 0
251 3 8.762959462841877 5.137471356353222 5.000953070273483 0 0 0
252 4 8.673199294695696 6.922181371848719 6.895718154520401 0 0 0
253 4 -2.039189538735615 8.671919844100618 5.149640937585575 0 0 0
254 1 -0.2633205402511509 8.693859899293594 6.950739723525449 0 0 0
400 2 -0.24222298142737347 10.488999710368281 5.185106091515802 0 0 0
255 2 1.5117636925502826 8.693991438200475 5.158800460173759 0 0 0
256 1 3.283597227349584 8.70742794807976 6.909845105575828 0 0 0
272 2 -2.0798653233541096 6.922935366326181 10.474696137547406 1 0 0
403 5 1.5142295255079055 10.4760044767875 6.94910164817698 0 0 0
257 1 5.078488140930704 8.734493252734245 5.094094209625654 0 0 0
258 1 6.895556902755942 8.736277336862084 6.904623047837255 0 0 0
404 5 6.8864239510851135 10.486979430018412 5.093809227231911 0 0 0
405 3 5.028721645120179 10.455259598899836 6.869834570031511 0 0 0
259 4 8.689857064282839 8.722408477269477 5.066432101480557 0 0 0
260 2 -2.064048942352949 5.126780301552135 8.700858555212486 0 0 0
261 1 -0.2674053143528487 6.928512211140194 8.704812148557952 0 0 0
262 2 1.5106243041128449 5.144783831260917 8.700487745972255 0 0 0
263 5 3.262108153170752 6.985932849493519 8.722281790350296 0 0 0
264 5 5.131399707045479 5.166369353173618 8.690424284441228 0 0 0
265 1 6.895784158475803 6.946808395324054 8.704188124581531 0 0 0
270 2 8.699814861305068 8.691957667166077 8.679254463980179 0 0 0
266 4 8.696747728432955 5.132191283097716 8.718703184101448 0 0 0
939 3 10.475214899152768 8.687292583634152 6.915886651736149 0 0 0
267 2 -2.042126015434121 8.701194506207958 8.721043247572585 0 0 0
268 1 1.4987379356111434 8.706377696247912 8.714773276132707 0 0 0
429 4 3.304153622156362 10.49917987657936 8.726177123210027 0 0 0
269 2 5.090376854922774 8.71547513604893 8.704160085293735 0 0 0
430 3 6.855851087626609 10.464941360804751 8.6575262299451 0 0 0
271 4 -0.2830660355345791 5.132638543410312 10.455382706098652 0 0 0
274 1 1.5028195692650161 6.947262538282329 10.497562188562732 0 0 0
273 4 3.2985816510892425 5.128267749116866 10.473094426225092 0 0 0
276 1 5.076940027946176 6.936574121649951 10.474773389566382 0 0 0
277 3 8.74112077143213 7.0022853894570805 10.494077447667786 0 0 0
956 1 10.496544190018941 5.125741028791494 10.492771478106063 0 0 0
280 3 6.855595525147824 8.635963539618455 10.469250376771342 0 0 0
282 5 -0.26180820780436 6.861087423699443 12.301133670722503 0 0 0
485 5 3.286361784946968 10.466502863450522 15.951496194691648 0 0 0
300 5 6.875122314848984 8.697447501601042 14.135451839919625 0 0 0
285 3 1.5367897815543494 5.081460901183287 12.290536242005386 0 0 0
286 3 3.305162111649722 6.937964886714545 12.27009866978683 0 0 0
1142 3 10.483240126069715 10.47812027062632 12.385991548835738 0 0 0
459 3 1.4905607014726796 10.48548261574684 14.046154978569543 0 0 0
289 2 5.0611534850119595 5.108152908005715 12.278823014445363 0 0 0
290 4 6.863243369538771 6.948910610970724 12.322952070754205 0 0 0
445 5 8.693982451744612 10.371862680822678 10.53409641070749 0 0 0
293 3 8.732720992689956 5.070384584354359 12.252884901737566 0 0 0
311 1 5.098361223333642 8.71146143583975 15.886721252202388 0 0 0
486 1 6.887824349174065 10.484849728005758 15.895513431756324 0 0 0
295 2 -2.076559686113684 8.69841892837934 12.279721973762612 0 0 0
484 2 -0.249178687176466 10.496180782449914 15.88717729263582 0 0 0
278 3 -0.2662674029935753 8.680150992785679 10.5113248133085 0 0 0
297 2 1.5358275446927947 8.701724569358538 12.289038374817665 0 0 0
279 2 3.2878501247847938 8.731343637025248 10.520963001383143 0 0 0
299 5 5.05248106585285 8.705798662164085 12.309617884035521 0 0 0
296 4 -0.2746257174135533 8.697429497568844 14.084028838361657 0 0 0
301 1 8.715467758227204 8.70332785111173 12.368522865754866 0 0 0
302 3 -2.068641429275167 5.090095839642647 15.913495876332407 0 0 0
283 1 -0.277051508004981 5.093768893479353 14.132705341769299 0 0 0
303 5 -0.2667013372959619 6.8570382978289155 15.908509897172959 0 0 0
312 4 8.707564397137878 8.656079860801887 15.920656755599824 0 0 0
288 5 1.5196606680351044 6.911825113763485 14.136026695009825 0 0 0
304 1 1.5307567699763684 5.096840407937129 15.90168475365712 0 0 0
287 5 3.361975665979388 5.096663444711448 14.1165548748268 0 0 0
305 4 3.3263918322092008 6.931270471794038 15.902092808352398 0 0 0
291 3 6.8104011967141895 5.070446946275881 14.010961855107665 0 0 0
292 1 5.078570763330294 6.923672626735418 14.098510825221311 0 0 0
306 5 5.093742218084854 5.105173313584836 15.925497158743429 0 0 0
307 3 6.838245056827102 6.944265903531158 15.941219021494872 0 0 0
310 2 1.5145790761622069 8.718707889564657 15.907708593385378 0 0 0
308 4 8.657535616756824 5.16089825137084 15.895929096570525 0 0 0
294 3 8.716383518688298 6.903599039670742 14.063846151971873 0 0 0
298 2 3.2922245263000773 8.716081698635902 14.107997595583328 0 0 0
275 5 6.874353836580473 5.190793225817639 10.538009130781594 0 0 0
313 2 -0.29179820655105 5.119392994956459 17.717234715721343 0 0 0
324 2 -0.27965300512453406 6.9130123443467895 19.48940366962257 0 0 0
314 1 -2.0617187241802597 6.895397030915217 17.715038024680823 0 0 0
316 3 1.551394374249461 6.844882857654408 17.69161184158013 0 0 0
327 4 1.557050031291937 5.141603020348383 19.531254567250954 0 0 0
315 1 3.352570328324409 5.142067203363409 17.704614601473377 0 0 0
328 2 3.348466640588166 6.91482257089514 19.525394281823203 0 0 0
318 3 5.087294331307178 7.00565322815625 17.79011808726407 0 0 0
331 1 5.108291617342936 5.151787142768556 19.54724843499554 0 0 0
317 4 6.875526035622625 5.1526727327702835 17.75054105213184 0 0 0
332 2 6.881938932839113 6.932042031041438 19.53584900306543 0 0 0
319 1 8.708791604372722 6.907282090271705 17.74949690415939 0 0 0
335 5 8.700520126214775 5.156903437993898 19.5095532901608 0 0 0
202 5 3.3214443927622455 6.993409036055426 23.058483699558618 0 0 0
320 4 -0.2730261874980962 8.692862913605705 17.676836132969886 0 0 0
514 3 3.3337279199890673 10.486323136941811 19.41515703316682 0 0 0
339 5 1.5217311254882917 8.684597472567857 19.5001834714802 0 0 0
321 1 3.281973328432856 8.702654733616727 17.721994441875815 0 0 0
341 1 5.11834856404678 8.715827900574107 19.514280598191494 0 0 0
322 1 6.905568339719084 8.67025859823902 17.7147971271374 0 0 0
1005 3 10.48627580826004 8.667908432852986 17.745749591670876 0 0 0
343 5 8.68272215303112 8.697207717570258 19.477477370411854 0 0 0
1023 4 10.459654487647043 8.724109760367783 21.305629085821234 0 0 0
325 3 -0.22738991901003192 5.175622992932991 21.303638593031593 0 0 0
330 1 1.5428989647646938 6.951794403292057 21.281273176161307 0 0 0
329 2 3.367628388105516 5.141037146007416 21.297541298580523 0 0 0
201 4 1.6028869220196118 5.136228592622013 23.052164189067312 0 0 0
197 5 -2.079640708438717 5.156826979251099 23.045198936213552 1 0 0
333 2 6.875200703364577 5.141870814320845 21.29660873096358 0 0 0
334 1 5.133896989797135 6.927900743546443 21.32004019718778 0 0 0
342 3 6.856416791619149 8.740957483201614 21.328415656004356 0 0 0
515 2 1.5189155138266064 10.49810970038648 21.313346265377234 0 0 0
336 5 8.682629318258346 6.914002878430764 21.34993498480817 0 0 0
338 2 -0.2622082757614353 8.704368259986628 21.293858824403834 0 0 0
340 4 3.342250958812099 8.75443198184681 21.283244096514494 0 0 0
213 2 1.4933818655848052 8.712526791175712 23.068808530987056 0 0 0
323 3 -2.000530123729309 5.106012672656377 19.521661934918942 1 0 0
326 4 -2.0703185147623877 6.9599629486731 21.28619836661802 1 0 0
337 1 -2.05889878940458 8.70884105493465 19.480815144935743 1 0 0
501 4 8.672584584521939 10.492465140464594 17.678722273834765 0 0 0
512 4 -0.26422969967418136 10.479433736690208 19.486109461112026 0 0 0
499 1 1.5172778795786275 10.494981817859202 17.677134723804713 0 0 0
513 2 -2.0720277346885716 10.451519568387235 21.295948444866003 1 0 0
500 5 5.169036467863272 10.42749959366743 17.664113408443846 0 0 0
516 2 6.867673390448123 10.485041760177955 19.483628953117307 0 0 0
198 2 -0.23482126224552977 6.931637285623897 23.05846142468843 0 0 -1
344 1 -0.27819096251235054 10.497495683796274 23.029021584225227 0 0 -1
211 1 -2.038115049854987 8.70235564850295 23.082105886865737 1 0 -1
353 3 -0.25750489446965824 12.393861515428496 -0.3535240477207479 0 0 0
393 4 -2.0709104432732737 15.91473661862064 1.5470024006647645 1 0 0
357 1 3.2679829970694536 12.29438745656291 -0.27054879989285596 0 0 0
399 3 8.726842303630272 15.905266556262823 1.523384090372927 0 0 0
355 1 1.50118509911397 12.295212383305953 -2.074498029685148 0 0 0
361 2 6.915113567276782 12.279164114433609 -0.22781276202613734 0 0 0
348 1 6.902216781841797 10.50206882158105 -2.047388374760525 0 0 0
350 3 8.648214676617737 10.51432311922454 -0.2302299714450491 0 0 0
363 4 8.669316089660853 12.316466869426739 -2.040937070436563 0 0 0
366 5 -0.23551794063808532 15.910498666535853 -0.3186764069744541 0 0 0
347 5 1.4328853434922781 10.523221580491631 -0.3389876518822809 0 0 0
358 2 1.5234114432014856 14.104941256482382 -0.27661025241320997 0 0 0
368 4 3.309948109775223 15.916403759054223 -0.28324895878911455 0 0 0
362 5 5.097264629099403 14.098226566610059 -0.1908405230272251 0 0 0
370 4 6.889191118365192 15.928509360134857 -0.23813479445258967 0 0 0
378 2 8.694611810117877 10.538431564847729 3.269960213419153 0 0 0
364 1 8.687063052467801 14.098208528492053 -0.23684074160876628 0 0 0
371 3 8.663249570925952 15.90758724004566 -1.9930789454145494 0 0 0
379 5 -2.0420625598124866 12.383952170185776 1.541514753466742 0 0 0
381 3 -0.24275854794344906 12.366291435349986 3.3773021581918528 0 0 0
383 4 1.5168370416686836 12.334695820421858 1.536717735061826 0 0 0
385 3 3.285894113685867 12.350643431591042 3.3407688167424254 0 0 0
389 3 6.9138066899099835 12.352837336816503 3.29690145361525 0 0 0
387 4 5.088035131997241 12.280255340762753 1.494207386027879 0 0 0
397 1 5.1055501646591805 15.936339910420884 1.5110146338804724 0 0 0
392 4 8.728123624677625 14.091350243162438 3.322328945735908 0 0 0
391 2 8.687188541037083 12.295075603220429 1.5143188180935687 0 0 0
382 1 -2.0776911035519707 14.14922619350611 3.3448118131006623 0 0 0
394 2 -0.24652938816699813 15.917014942519977 3.372567220326972 0 0 0
380 5 -0.24930125642391776 14.159855437857345 1.589235709573825 0 0 0
384 1 3.299336943284117 14.112039122700287 1.5017605666534266 0 0 0
395 3 1.5582868237494767 15.896810075922497 1.5277091693827676 0 0 0
396 5 3.3795128362002718 15.893205288174004 3.2600580132720522 0 0 0
386 1 1.5653703539846286 14.139756863022937 3.346143811837718 0 0 0
390 4 5.1225675207452905 14.098969081606345 3.2892975376140536 0 0 0
388 1 6.920493547070808 14.090144035224906 1.492262361671206 0 0 0
398 4 6.902775290138905 15.883958306106413 3.307460795047653 0 0 0
359 4 5.125105923327277 12.267356048952392 -2.0012160092584588 0 0 0
376 2 6.912496606455521 10.506438978782748 1.5321612705616448 0 0 0
360 4 6.880467855597772 14.103281992304874 -2.032137151248562 0 0 0
356 5 3.2635827685740195 14.047109180694788 -2.0455469727110724 0 0 0
1038 1 10.489739427674449 12.295485259928794 -0.26248223428987416 0 0 0
1037 3 10.477803350681674 14.135151145507573 -1.9395200704655318 0 0 0
1058 2 10.474906469941065 10.548267454272008 1.5086630044215739 0 0 0
1065 5 10.489597935038985 14.069345526216999 1.4860939266251065 0 0 0
377 4 5.0642825184549025 10.521858431398522 3.333135879977752 0 0 0
372 3 -0.26419742968961557 10.518059419921638 1.5150991322772798 0 0 0
345 3 -1.9829677339166878 10.50794390826614 -0.3445745509521778 1 0 0
373 5 -1.9530968458139573 10.506864672909584 3.3593274922654124 0 0 0
1030 3 10.44642107856521 10.510795138344799 -2.025397184124909 0 0 1
367 1 1.5105874442956488 15.921537183819272 -2.0511190142973312 0 0 1
409 1 -0.27341417306176463 12.3087963932912 6.956227514382503 0 0 0
407 4 -2.0537757840410427 12.323711244110696 5.140879772578411 0 0 0
401 5 -2.020350308047195 10.500013360597679 6.950505709278053 0 0 0
411 5 1.492828331139941 12.35423507650236 5.195101019997667 0 0 0
413 4 3.3129969177663123 12.318745228191485 6.949276500606538 0 0 0
415 2 5.091015506702745 12.306184832732503 5.104198653657141 0 0 0
417 4 6.876191821890136 12.300119755459026 6.882806580311557 0 0 0
419 4 8.725512321033571 12.322232119532522 5.10399688916218 0 0 0
421 2 -2.0654709399465037 15.896628227106822 5.117529301871961 0 0 0
410 3 -2.041176416830995 14.163799607628063 6.9454395500324715 0 0 0
408 3 -0.2952954812094014 14.162864453815969 5.118681298697261 0 0 0
422 2 -0.2700087773389166 15.88459738819241 6.924385501485287 0 0 0
414 1 1.5006455302875186 14.111659873721042 6.95574353390259 0 0 0
423 3 1.5070337199927435 15.863500845339503 5.157277228912017 0 0 0
412 5 3.3266518796695284 14.131934144320173 5.145149645291028 0 0 0
424 2 3.3148824853467507 15.869951698369851 6.943502882436313 0 0 0
426 5 6.907825261951489 15.923689456853388 6.895351448634239 0 0 0
418 5 5.110315067517569 14.091077217551126 6.936722377648651 0 0 0
425 2 5.116488611743334 15.906647374190682 5.130156214637729 0 0 0
416 1 6.854117207637132 14.106435330093587 5.128795283347972 0 0 0
427 3 8.750548216981096 15.866573883801697 5.075371318081462 0 0 0
420 4 8.72210604114438 14.115633892580194 6.85868570747989 0 0 0
428 2 -0.26655887544565154 10.506295479274533 8.729914271179954 0 0 0
431 3 -2.0373862782492442 12.33349961562258 8.75807048259122 0 0 0
433 2 1.467623555549876 12.332885680367752 8.704695539698854 0 0 0
448 4 3.284718494716872 12.314819587445271 10.492098837533742 0 0 0
402 1 3.2704515602327624 10.509440491017427 5.121687680654143 0 0 0
435 1 5.144547479369139 12.339056354342823 8.739166174701333 0 0 0
450 5 6.957314936427608 12.287272879142611 10.494695402443622 0 0 0