LAMMPS (2 Aug 2023 - Update 1)
  using 32 OpenMP thread(s) per MPI task
# some default settings
echo log
units metal
newton on
boundary p p p
atom_style atomic
neighbor 1.0 bin
neigh_modify every 1 delay 5 check yes
thermo 100

variable temperature equal 600
variable nsteps equal 1000000
variable nframes equal 50

# get number of types, not aware of a way to do this with LAMMPS natively

shell ./get_num_types.py inputs/${tag}/masses.in > atom_types_count_${tag}
shell ./get_num_types.py inputs/FeAl/masses.in > atom_types_count_${tag}
shell ./get_num_types.py inputs/FeAl/masses.in > atom_types_count_FeAl
variable ntypes file atom_types_count_${tag}
variable ntypes file atom_types_count_FeAl
shell rm atom_types_count_${tag}
shell rm atom_types_count_FeAl

if "${tag} == FeAl" then    "variable nswaps equal 25" elif "${tag} == cantor"    "variable nswaps equal 5"
variable nswaps equal 25

# initialize lattice from inputs folder
include inputs/${tag}/lattice.in
include inputs/FeAl/lattice.in
lattice bcc 3.5 orient x 1 0 0 orient y 0 1 0 orient z 0 0 1
Lattice spacing in x,y,z = 3.5 3.5 3.5
region box block -4 4 -4 4 -4 4
create_box ${ntypes} box
create_box 2 box
Created orthogonal box = (-14 -14 -14) to (14 14 14)
  2 by 4 by 4 MPI processor grid
create_atoms 1 box
Created 1024 atoms
  using lattice units in orthogonal box = (-14 -14 -14) to (14 14 14)
  create_atoms CPU = 0.003 seconds

# initialize some more properties from input folder
include inputs/${tag}/masses.in
include inputs/FeAl/masses.in
mass 1 55.845
mass 2 26.980
include inputs/${tag}/potential.in
include inputs/FeAl/potential.in
pair_style meam
pair_coeff * * library_FeAl.meam Fe Al FeAl.meam Fe Al
include inputs/${tag}/composition.in
include inputs/FeAl/composition.in
#set type 1 type/ratio 2 0.50 123456

region right_region block 0 INF INF INF INF INF
group right_group region right_region
512 atoms in group right_group
set group right_group type 2
Setting atom values ...
  512 settings made for type

# relax lattice at 0 K and 0 bar
min_style cg
min_modify dmax 1.0e-2 line quadratic
fix min all box/relax iso 0.0 vmax 0.01
minimize 0.0 1.0e-4 10000 10000
Switching to 'neigh_modify every 1 delay 0 check yes' setting during minimization
Neighbor list info ...
  update: every = 1 steps, delay = 0 steps, check = yes
  max neighbors/atom: 2000, page size: 100000
  master list distance cutoff = 5
  ghost atom cutoff = 5
  binsize = 2.5, bins = 12 12 12
  2 neighbor lists, perpetual/occasional/extra = 2 0 0
  (1) pair meam, perpetual
      attributes: full, newton on
      pair build: full/bin/atomonly
      stencil: full/bin/3d
      bin: standard
  (2) pair meam, perpetual, half/full from (1)
      attributes: half, newton on
      pair build: halffull/newton
      stencil: none
      bin: none
WARNING: Energy due to 1 extra global DOFs will be included in minimizer energies
 (src/min.cpp:225)
Per MPI rank memory allocation (min/avg/max) = 48.92 | 48.92 | 48.92 Mbytes
   Step          Temp          E_pair         E_mol          TotEng         Press          Volume    
         0   0             -3167.664       0             -3167.664      -165893.83      21952        
       100   0             -3875.9015      0             -3875.9015     -2694.3678      14079.849    
       200   0             -3916.5549      0             -3916.5549     -1049.9784      14185.821    
       300   0             -3916.6991      0             -3916.6991     -33.882727      14190.795    
       400   0             -3916.6994      0             -3916.6994      0.0011361098   14191.078    
       445   0             -3916.6994      0             -3916.6994     -0.0021503114   14191.088    
Loop time of 0.561348 on 1024 procs for 445 steps with 1024 atoms

98.7% CPU use with 32 MPI tasks x 32 OpenMP threads

Minimization stats:
  Stopping criterion = force tolerance
  Energy initial, next-to-last, final = 
     -3167.66399335251  -3916.69935210733  -3916.69935211443
  Force two-norm initial, final = 6818.9162 8.7618402e-05
  Force max component initial, final = 6818.9141 6.6081631e-05
  Final line search alpha, max atom move = 1 6.6081631e-05
  Iterations, force evaluations = 445 804

MPI task timing breakdown:
Section |  min time  |  avg time  |  max time  |%varavg| %total
---------------------------------------------------------------
Pair    | 0.37702    | 0.41701    | 0.45723    |   3.5 | 74.29
Neigh   | 0.0067439  | 0.010065   | 0.013504   |   2.0 |  1.79
Comm    | 0.04314    | 0.078261   | 0.11305    |   8.6 | 13.94
Output  | 0.00018799 | 0.00019243 | 0.00021271 |   0.0 |  0.03
Modify  | 0          | 0          | 0          |   0.0 |  0.00
Other   |            | 0.05582    |            |       |  9.94

Nlocal:             32 ave          41 max          23 min
Histogram: 1 4 6 2 3 5 1 3 5 2
Nghost:            431 ave         440 max         422 min
Histogram: 2 5 3 1 2 6 2 6 4 1
Neighs:            632 ave         979 max         334 min
Histogram: 10 5 1 0 0 0 3 2 8 3
FullNghs:         1264 ave        1938 max         670 min
Histogram: 7 9 0 0 0 0 3 2 8 3

Total # of neighbors = 40448
Ave neighs/atom = 39.5
Neighbor list builds = 139
Dangerous builds = 0
unfix min

# nvt equilibration
reset_timestep 0
# fix thermostat all langevin ${temperature} ${temperature} 1.0 123456 gjf vhalf
# fix nve_fix all nve
fix thermo_baro_stat all npt temp ${temperature} ${temperature} $(100.0 * dt) iso 1.0 1.0 $(1000.0 * dt)
fix thermo_baro_stat all npt temp 600 ${temperature} $(100.0 * dt) iso 1.0 1.0 $(1000.0 * dt)
fix thermo_baro_stat all npt temp 600 600 $(100.0 * dt) iso 1.0 1.0 $(1000.0 * dt)
fix thermo_baro_stat all npt temp 600 600 0.10000000000000000555 iso 1.0 1.0 $(1000.0 * dt)
fix thermo_baro_stat all npt temp 600 600 0.10000000000000000555 iso 1.0 1.0 1
fix recenter_fix all recenter INIT INIT INIT
dump equilibration all atom 1000 mc_data/${tag}/equil.dump
dump equilibration all atom 1000 mc_data/FeAl/equil.dump
run 10000
Per MPI rank memory allocation (min/avg/max) = 47.85 | 47.87 | 47.88 Mbytes
   Step          Temp          E_pair         E_mol          TotEng         Press          Volume    
         0   0             -3916.6994      0             -3916.6994     -0.0021503114   14191.088    
       100   2.736158e-08  -3916.6994      0             -3916.6994      1.632139       14191.066    
       200   1.2802762e-08 -3916.6994      0             -3916.6994      0.97842399     14191.07     
       300   6.0318416e-08 -3916.6994      0             -3916.6994      0.67256478     14191.075    
       400   2.6296442e-08 -3916.6994      0             -3916.6994      1.7250952      14191.069    
       500   5.6985737e-08 -3916.6994      0             -3916.6994     -0.12489468     14191.091    
       600   6.8307366e-08 -3916.6994      0             -3916.6994      1.6556714      14191.061    
       700   2.4346297e-08 -3916.6994      0             -3916.6994      1.504355       14191.061    
       800   2.5002687e-07 -3916.6994      0             -3916.6994      0.051247465    14191.088    
       900   1.0928345e-08 -3916.6994      0             -3916.6994      1.7869375      14191.075    
      1000   5.2573361e-07 -3916.6994      0             -3916.6994     -0.1311874      14191.085    
      1100   8.0830729e-09 -3916.6994      0             -3916.6994      1.9743282      14191.046    
      1200   7.4061954e-07 -3916.6994      0             -3916.6994      1.9937602      14191.058    
      1300   3.0430619e-07 -3916.6994      0             -3916.6994     -1.453444       14191.122    
      1400   1.1510263e-06 -3916.6994      0             -3916.6994      2.2969207      14191.071    
      1500   1.5585692e-06 -3916.6994      0             -3916.6994      0.47254314     14191.055    
      1600   1.5365369e-06 -3916.6994      0             -3916.6994      2.2832645      14191.031    
      1700   4.264572e-06  -3916.6994      0             -3916.6994      1.9744226      14191.086    
      1800   7.8942192e-07 -3916.6994      0             -3916.6994     -4.054378       14191.182    
      1900   1.1321916e-05 -3916.6994      0             -3916.6994      3.8891703      14191.022    
      2000   2.6173234e-07 -3916.6993      0             -3916.6993      3.0754236      14190.97     
      2100   2.6721934e-05 -3916.6994      0             -3916.6993      1.1273488      14191.069    
      2200   9.2426369e-06 -3916.6993      0             -3916.6993     -0.11562846     14191.198    
      2300   8.7572811e-05 -3916.6994      0             -3916.6993     -6.0678527      14191.209    
      2400   0.00038409075 -3916.6994      0             -3916.6993      7.6218573      14190.845    
      2500   0.0029713155  -3916.6996      0             -3916.6992      9.4541438      14190.846    
      2600   0.024239267   -3916.7013      0             -3916.6981     -9.7957104      14191.354    
      2700   0.33423805    -3916.7301      0             -3916.6859     -76.392525      14190.229    
      2800   3.7832919     -3917.0149      0             -3916.5146      362.75707      14188.337    
      2900   16.371387     -3917.64        0             -3915.4752      911.03267      14205.919    
      3000   38.857621     -3917.814       0             -3912.6758      2018.9504      14291.012    
      3100   27.569732     -3912.0973      0             -3908.4517      140.83983      14511.909    
      3200   37.649288     -3910.441       0             -3905.4625     -9840.9125      14659.364    
      3300   108.36133     -3911.2066      0             -3896.8777      5750.4517      14239.405    
      3400   169.77584     -3905.4871      0             -3883.0371      3107.6583      14134.166    
      3500   211.60071     -3891.8733      0             -3863.8927      3730.4669      14269.692    
      3600   256.6459      -3870.5487      0             -3836.6116      18919.444      14604.317    
      3700   310.01882     -3854.318       0             -3813.3233     -23764.141      15317.049    
      3800   536.8474      -3857.5215      0             -3786.5325      2090.8242      14545.004    
      3900   777.16682     -3855.3517      0             -3752.5845      5536.8356      14301.297    
      4000   866.70399     -3854.0498      0             -3739.4428     -12313.928      14827.369    
      4100   411.21063     -3815.6981      0             -3761.3224      21457.145      14914.007    
      4200   559.95488     -3842.8494      0             -3768.8048     -22366.028      15290.679    
      4300   499.17828     -3839.6526      0             -3773.6447      3432.1029      14707.154    
      4400   333.91342     -3810.3726      0             -3766.2182      24249.881      14372.688    
      4500   708.43501     -3849.2081      0             -3755.5295     -7109.2579      14753.113    
      4600   364.07524     -3804.8093      0             -3756.6665      28290.109      14783.08     
      4700   588.56048     -3836.5728      0             -3758.7456     -8575.1236      14973.7      
      4800   630.29159     -3843.7706      0             -3760.4252     -2103.1219      14684.465    
      4900   539.44128     -3835.673       0             -3764.341       13144.64       14565.835    
      5000   918.90783     -3877.8208      0             -3756.3107     -21758.041      14982.871    
      5100   539.95955     -3828.5957      0             -3757.1951     -2115.9625      14970.246    
      5200   669.10962     -3848.5227      0             -3760.0443     -7285.8069      14965.639    
      5300   454.64154     -3823.2735      0             -3763.1549      1591.3241      14716.282    
      5400   631.15029     -3841.3486      0             -3757.8896      9771.008       14542.263    
      5500   582.60198     -3846.1678      0             -3769.1285     -3404.5636      14856.251    
      5600   668.96902     -3861.6515      0             -3773.1917     -13018.037      14873.929    
      5700   723.56786     -3862.18        0             -3766.5003      54.012829      14775.409    
      5800   615.54729     -3837.7574      0             -3756.3617     -5998.067       14855.661    
      5900   611.06854     -3830.6013      0             -3749.7978      5981.3575      14751.428    
      6000   625.53593     -3834.1309      0             -3751.4143     -6608.2506      14863.568    
      6100   611.24791     -3837.4861      0             -3756.6589      6116.5776      14623.446    
      6200   575.79068     -3838.4924      0             -3762.3538      1761.8263      14769.904    
      6300   517.97737     -3831.7377      0             -3763.244      -2534.5566      14937.422    
      6400   622.21168     -3839.7813      0             -3757.5043      2525.1954      14834.155    
      6500   574.64944     -3829.8192      0             -3753.8315     -3778.0542      14855.343    
      6600   638.97469     -3836.19        0             -3751.6964      3355.0053      14692.994    
      6700   590.5569      -3835.7357      0             -3757.6445      4024.2209      14758.491    
      6800   600.59693     -3841.443       0             -3762.0242     -9551.3043      14923.492    
      6900   604.74166     -3840.3683      0             -3760.4014      4686.4715      14693.911    
      7000   598.48085     -3836.8342      0             -3757.6952      1828.3032      14753.96     
      7100   604.68682     -3834.8217      0             -3754.8621     -774.37612      14876.845    
      7200   595.3852      -3832.105       0             -3753.3754     -680.65915      14875.869    
      7300   622.73229     -3835.9894      0             -3753.6436     -2293.3663      14806.883    
      7400   605.92632     -3837.4245      0             -3757.3009      2869.6315      14683.238    
      7500   611.99823     -3842.632       0             -3761.7056     -1278.184       14759.442    
      7600   559.26187     -3836.5894      0             -3762.6364     -1564.599       14825.832    
      7700   623.15336     -3840.0762      0             -3757.6747      306.06604      14779.348    
      7800   588.59426     -3831.3925      0             -3753.5609      2237.7731      14792.808    
      7900   617.73578     -3834.7523      0             -3753.0671     -1601.9283      14853.139    
      8000   627.4723      -3838.5951      0             -3755.6225     -737.59828      14843.515    
      8100   571.5348      -3836.2956      0             -3760.7198      1121.2882      14795.304    
      8200   593.92904     -3840.945       0             -3762.4079     -46.138673      14773.043    
      8300   563.36567     -3834.6529      0             -3760.1573      2170.2878      14781.721    
      8400   620.18346     -3837.1456      0             -3755.1368     -1557.7456      14835.301    
      8500   614.35418     -3833.5068      0             -3752.2689     -356.16695      14830.606    
      8600   608.286       -3833.6676      0             -3753.232       1262.9127      14788.026    
      8700   605.94863     -3837.4421      0             -3757.3156     -470.38423      14813.665    
      8800   599.19644     -3840.5245      0             -3761.2908     -2132.647       14828.54     
      8900   588.90828     -3839.8612      0             -3761.988       892.33097      14755.939    
      9000   609.23125     -3839.5163      0             -3758.9558      962.72684      14754.176    
      9100   597.10717     -3834.5477      0             -3755.5904     -670.49962      14813.61     
      9200   621.89627     -3834.6923      0             -3752.457      -343.22094      14838.773    
      9300   612.82878     -3834.3706      0             -3753.3343     -550.82464      14824.912    
      9400   590.54485     -3835.7431      0             -3757.6535      1279.0673      14778.953    
      9500   588.51603     -3840.0265      0             -3762.2052     -515.07532      14797.241    
      9600   587.29032     -3839.6892      0             -3762.03       -1672.9227      14816.111    
      9700   599.98387     -3837.5824      0             -3758.2447      2031.8998      14775.906    
      9800   590.27252     -3831.7779      0             -3753.7243     -1283.9361      14824.234    
      9900   624.89758     -3834.5339      0             -3751.9018      687.23527      14792.53     
     10000   618.31954     -3836.9527      0             -3755.1904      460.75138      14809.911    
Loop time of 7.50573 on 1024 procs for 10000 steps with 1024 atoms

Performance: 115.112 ns/day, 0.208 hours/ns, 1332.316 timesteps/s, 1.364 Matom-step/s
98.8% CPU use with 32 MPI tasks x 32 OpenMP threads

MPI task timing breakdown:
Section |  min time  |  avg time  |  max time  |%varavg| %total
---------------------------------------------------------------
Pair    | 5.1141     | 5.8541     | 6.5477     |  19.2 | 78.00
Neigh   | 0.010611   | 0.015523   | 0.019191   |   2.4 |  0.21
Comm    | 0.33446    | 1.0133     | 1.6734     |  46.4 | 13.50
Output  | 0.0058441  | 0.0064006  | 0.0073541  |   0.4 |  0.09
Modify  | 0.459      | 0.53671    | 0.65341    |   8.4 |  7.15
Other   |            | 0.07964    |            |       |  1.06

Nlocal:             32 ave          41 max          24 min
Histogram: 2 6 2 3 3 5 3 5 1 2
Nghost:        422.344 ave         432 max         415 min
Histogram: 5 3 3 2 4 5 4 5 0 1
Neighs:          588.5 ave         864 max         354 min
Histogram: 6 7 3 0 0 0 3 7 4 2
FullNghs:         1177 ave        1719 max         702 min
Histogram: 7 6 3 0 0 0 3 6 5 2

Total # of neighbors = 37664
Ave neighs/atom = 36.78125
Neighbor list builds = 187
Dangerous builds = 0
undump equilibration

# run mc-md routine
reset_timestep 0

# do a swap_fix for every atom-atom pair

label fixing_outer_loop
variable i loop ${ntypes}
variable i loop 2

   variable jstart equal ${i}+1
   variable jstart equal 1+1
   if "${jstart} > ${ntypes}" then "jump SELF fixing_loop_end"
   label fixing_inner_loop
   variable j loop ${jstart} ${ntypes}
   variable j loop 2 ${ntypes}
   variable j loop 2 2

      fix swap_fix${i}${j} all atom/swap 1000 ${nswaps} 123456 ${temperature} types ${i} ${j}
      fix swap_fix1${j} all atom/swap 1000 ${nswaps} 123456 ${temperature} types ${i} ${j}
      fix swap_fix12 all atom/swap 1000 ${nswaps} 123456 ${temperature} types ${i} ${j}
      fix swap_fix12 all atom/swap 1000 25 123456 ${temperature} types ${i} ${j}
      fix swap_fix12 all atom/swap 1000 25 123456 600 types ${i} ${j}
      fix swap_fix12 all atom/swap 1000 25 123456 600 types 1 ${j}
      fix swap_fix12 all atom/swap 1000 25 123456 600 types 1 2

      next j
      jump SELF fixing_inner_loop

   next i
   jump SELF fixing_outer_loop
variable i loop ${ntypes}
variable i loop 2

   variable jstart equal ${i}+1
   variable jstart equal 2+1
   if "${jstart} > ${ntypes}" then "jump SELF fixing_loop_end"
jump SELF fixing_loop_end

# dump and write restart files

variable r equal logfreq3(10,${nframes},${nsteps})
variable r equal logfreq3(10,50,${nsteps})
variable r equal logfreq3(10,50,1000000)

dump mc_dump all atom 1 mc_data/${tag}/mc.dump
dump mc_dump all atom 1 mc_data/FeAl/mc.dump
dump_modify mc_dump every v_r
restart v_r mc_data/${tag}/mc.*.restart
restart v_r mc_data/FeAl/mc.*.restart
run ${nsteps}
run 1000000
Per MPI rank memory allocation (min/avg/max) = 47.85 | 47.87 | 47.88 Mbytes
   Step          Temp          E_pair         E_mol          TotEng         Press          Volume    
         0   618.31954     -3836.9527      0             -3755.1904      460.75138      14809.911    
       100   603.27494     -3864.7531      0             -3784.9802     -1347.2486      14742.468    
       200   597.39332     -3870.5526      0             -3791.5574      2534.8767      14607.794    
       300   581.03943     -3870.1357      0             -3793.303      -1416.1463      14628.197    
       400   586.87176     -3866.0281      0             -3788.4242      1328.7368      14638.676    
       500   638.72657     -3865.4633      0             -3781.0025     -732.37362      14700.257    
       600   649.11838     -3863.8289      0             -3777.9939     -2127.7353      14745.357    
       700   617.34917     -3863.1138      0             -3781.4798     -285.2477       14719.412    
       800   583.9986      -3865.6636      0             -3788.4396     -113.67652      14675.292    
       900   571.1962      -3867.2854      0             -3791.7544      1449.5419      14622.286    
      1000   576.24108     -3866.5141      0             -3790.3159      1081.6756      14646.862    
      1100   591.02387     -3881.3345      0             -3803.1815      689.78864      14627.609    
      1200   613.19387     -3883.2895      0             -3802.2049      661.0801       14597.842    
      1300   590.64629     -3884.571       0             -3806.468      -898.5001       14596.558    
      1400   578.23046     -3887.0201      0             -3810.5589      2395.2257      14541.092    
      1500   577.31116     -3888.2047      0             -3811.865       676.67073      14554.072    
      1600   575.66216     -3886.4233      0             -3810.3017     -277.48894      14576.368    
      1700   608.5078      -3885.5872      0             -3805.1223      751.8102       14588.762    
      1800   617.6299      -3883.7098      0             -3802.0387     -1501.6413      14618.827    
      1900   625.44615     -3886.5421      0             -3803.8374     -223.16764      14587.269    
      2000   608.00699     -3889.9723      0             -3809.5736     -125.92494      14565.06     
      2100   597.99154     -3905.5992      0             -3826.5249     -788.25494      14517.515    
      2200   579.90758     -3906.673       0             -3829.99        1697.2811      14452.613    
      2300   574.79992     -3904.1352      0             -3828.1276      381.1679       14471.005    
      2400   614.46047     -3904.4506      0             -3823.1986     -69.677273      14505.472    
      2500   607.62555     -3900.3514      0             -3820.0032     -835.49342      14549.384    
      2600   618.98115     -3902.4465      0             -3820.5967     -262.04326      14539.857    
      2700   595.55243     -3903.548       0             -3824.7963      873.80189      14511.459    
      2800   588.52157     -3905.9777      0             -3828.1556     -1131.0777      14499.889    
      2900   569.73171     -3904.775       0             -3829.4376      2420.729       14457.078    
      3000   607.48145     -3906.3062      0             -3825.9771     -697.43299      14505.725    
      3100   614.61951     -3913.8568      0             -3832.5837      427.25189      14481.151    
      3200   631.39343     -3916.8242      0             -3833.3331     -1190.9147      14451.66     
      3300   586.37232     -3916.3019      0             -3838.7641      809.35918      14410.201    
      3400   595.0445      -3921.9774      0             -3843.2928      511.29887      14391.822    
      3500   572.31063     -3919.7344      0             -3844.056      -690.63443      14432.751    
      3600   600.6731      -3918.796       0             -3839.3671      349.97802      14434.144    
      3700   612.70018     -3915.0517      0             -3834.0324      587.14441      14447.235    
      3800   614.23406     -3913.6538      0             -3832.4317     -1926.9145      14504.735    
      3900   630.3428      -3917.6261      0             -3834.2739     -829.49041      14463.9      
      4000   591.90867     -3917.7949      0             -3839.525       2754.4264      14406.937    
      4100   595.48424     -3934.2749      0             -3855.5322     -2415.0588      14401.544    
      4200   580.18999     -3937.4105      0             -3860.6902      3410.028       14275.812    
      4300   575.56551     -3937.1434      0             -3861.0346     -247.01771      14330.052    
      4400   582.13203     -3933.037       0             -3856.0598     -1689.0567      14385.14     
      4500   620.05961     -3931.9662      0             -3849.9738      3918.5642      14351.138    
      4600   629.80131     -3931.1342      0             -3847.8536     -5252.1257      14473.579    
      4700   623.0741      -3932.808       0             -3850.417       1528.3334      14364.492    
      4800   597.82144     -3935.7641      0             -3856.7123      2120.292       14313.353    
      4900   554.34717     -3935.1995      0             -3861.8965     -2358.9376      14356.1      
      5000   588.18835     -3938.1029      0             -3860.3249      3974.2662      14306.351    
      5100   599.71326     -3937.5528      0             -3858.2509     -3330.8217      14410.612    
      5200   609.86679     -3936.6684      0             -3856.0238      115.5933       14343.796    
      5300   615.46204     -3938.9424      0             -3857.5579      4604.5698      14268.702    
      5400   583.58938     -3939.6617      0             -3862.4919     -5125.412       14382.348    
      5500   570.75998     -3940.3362      0             -3864.8628      4840.7259      14277.351    
      5600   585.06565     -3940.6661      0             -3863.3011     -1072.2285      14356.192    
      5700   600.01644     -3937.8839      0             -3858.5418     -2829.2051      14394.688    
      5800   639.91249     -3938.7253      0             -3854.1077      3242.703       14286.909    
      5900   617.841       -3937.4411      0             -3855.7421     -2399.6457      14353.067    
      6000   621.80644     -3943.0086      0             -3860.7852     -2037.4267      14334.069    
      6100   591.02459     -3948.4182      0             -3870.2652      2902.7121      14264.102    
      6200   577.60234     -3948.9734      0             -3872.5952     -3912.6675      14341.626    
      6300   592.51754     -3949.531       0             -3871.1806      2868.9208      14238.552    
      6400   593.81035     -3946.6754      0             -3868.154       1905.5837      14270.173    
      6500   591.90954     -3943.6364      0             -3865.3664     -4084.9976      14365.288    
      6600   626.6656      -3947.0688      0             -3864.2028      4725.1976      14233.321    
      6700   584.17926     -3944.482       0             -3867.2342     -1070.3172      14308.815    
      6800   604.59124     -3950.6509      0             -3870.7039     -2380.7097      14295.325    
      6900   592.77644     -3951.1388      0             -3872.7541      4708.2497      14208.843    
      7000   585.04083     -3948.7821      0             -3871.4203     -4339.2234      14330.506    
      7100   615.94686     -3952.477       0             -3871.0285      2795.7849      14233.929    
      7200   609.09512     -3950.8257      0             -3870.2832      1054.7464      14243.757    
      7300   610.59371     -3953.2393      0             -3872.4985     -4048.3705      14303.33     
      7400   596.35172     -3954.1683      0             -3875.3108      4214.3592      14189.128    
      7500   588.95594     -3954.4702      0             -3876.5907     -1445.5293      14266.423    
      7600   586.97796     -3952.7508      0             -3875.1329     -2034.2048      14284.017    
      7700   606.40331     -3952.1654      0             -3871.9788      3602.9         14211.412    
      7800   614.40742     -3952.3511      0             -3871.1061     -3693.7517      14295.879    
      7900   605.08532     -3952.1367      0             -3872.1244      733.98422      14246.056    
      8000   594.62843     -3953.2851      0             -3874.6556      2239.9873      14223.403    
      8100   588.87635     -3961.9109      0             -3884.0419     -2015.1581      14237.538    
      8200   595.69481     -3965.8743      0             -3887.1037      2757.9572      14146.661    
      8300   574.05117     -3963.5883      0             -3887.6797     -236.82554      14184.845    
      8400   594.31218     -3962.2466      0             -3883.6588     -862.88044      14213.672    
      8500   607.47251     -3960.3662      0             -3880.0382      1247.9346      14202.386    
      8600   608.24846     -3960.5083      0             -3880.0777     -1300.129       14223.618    
      8700   582.2002      -3960.7526      0             -3883.7664      1736.3768      14179.961    
      8800   585.14223     -3964.439       0             -3887.0639     -1113.823       14203.93     
      8900   590.60249     -3966.1617      0             -3888.0645      626.55629      14178.133    
      9000   594.69213     -3963.862       0             -3885.224       559.44919      14190.315    
      9100   606.6946      -3964.6093      0             -3884.3842     -631.63462      14205.789    
      9200   608.20794     -3964.5132      0             -3884.0879      540.77117      14193.329    
      9300   587.9792      -3963.7719      0             -3886.0216      509.03769      14197.53     
      9400   602.23958     -3967.5861      0             -3887.9501     -855.77301      14199.533    
      9500   592.0562      -3966.1614      0             -3887.8719      373.20823      14187.915    
      9600   606.13078     -3965.2686      0             -3885.118       253.48523      14176.937    
      9700   595.42341     -3960.9387      0             -3882.204       1267.6117      14171.698    
      9800   638.38505     -3964.6234      0             -3880.2077     -896.44112      14198.929    
      9900   611.51264     -3964.6454      0             -3883.7832      591.26788      14193.589    
     10000   600.40213     -3967.686       0             -3888.293      -2254.6947      14210.955    
     10100   607.40855     -3973.7855      0             -3893.466       443.73712      14137.336    
     10200   598.80133     -3973.3299      0             -3894.1485      1170.6411      14114.127    
     10300   593.04612     -3970.3731      0             -3891.9528     -2637.3322      14168.987    
     10400   619.24409     -3970.0826      0             -3888.198       2543.5922      14125.277    
     10500   612.47068     -3967.565       0             -3886.5761     -2009.7378      14193.366    
     10600   612.81803     -3969.4556      0             -3888.4208     -871.52987      14170.123    
     10700   581.2065      -3970.1995      0             -3893.3447      3128.3136      14102.857    
     10800   574.50695     -3973.3321      0             -3897.3633     -1687.8718      14170.769    
     10900   569.96685     -3972.3737      0             -3897.0052      989.42072      14165.392    
     11000   606.62896     -3972.6753      0             -3892.4589     -246.09409      14160.587    
     11100   619.53575     -3974.3685      0             -3892.4454     -1017.1479      14145.23     
     11200   608.21521     -3976.0109      0             -3895.5847      2133.1988      14080.912    
     11300   606.80504     -3980.8198      0             -3900.5801     -1634.3873      14118.139    
     11400   563.29777     -3978.0525      0             -3903.5659     -193.93885      14108.065    
     11500   587.30806     -3979.9552      0             -3902.2936      2633.8916      14083.639    
     11600   597.03627     -3976.9603      0             -3898.0123     -4718.9215      14170.227    
     11700   604.99724     -3972.788       0             -3892.7874      3240.761       14091.458    
     11800   605.79378     -3973.0207      0             -3892.9147      1205.8093      14109.613    
     11900   575.74024     -3973.8113      0             -3897.6793     -3401.9626      14162.262    
     12000   603.21138     -3979.8433      0             -3900.0788      4568.2451      14048.094    
     12100   577.89223     -3982.1405      0             -3905.724      -1215.385       14097.739    
     12200   592.66026     -3983.8184      0             -3905.4491     -1550.5893      14094.377    
     12300   595.88048     -3982.3125      0             -3903.5174      4144.942       14025.784    
     12400   608.24944     -3982.0089      0             -3901.5782     -3579.6713      14144.858    
     12500   619.76863     -3982.8205      0             -3900.8666     -719.2078       14105.525    
     12600   598.80598     -3981.7793      0             -3902.5973      3484.9154      14052.92     
     12700   579.06603     -3982.423       0             -3905.8513     -4272.1839      14134.224    
     12800   611.43042     -3987.3763      0             -3906.5249      2718.7499      14011.711    
     12900   582.40272     -3983.1016      0             -3906.0887      1114.1313      14049.739    
     13000   605.52768     -3983.3806      0             -3903.3098     -3630.8513      14135.847    
     13100   614.44011     -3984.3301      0             -3903.0808      3940.5669      14039.641    
     13200   588.36872     -3982.1674      0             -3904.3656     -2226.3972      14121.314    
     13300   584.50141     -3984.5394      0             -3907.2489     -300.71595      14079.76     
     13400   592.48891     -3987.6675      0             -3909.3208      4957.1224      14012.338    
     13500   575.68974     -3985.6964      0             -3909.5711     -4768.3381      14144.33     
     13600   606.79089     -3987.1774      0             -3906.9395      2205.4178      14059.72     
     13700   611.85885     -3986.3193      0             -3905.4113      876.92654      14070.894    
     13800   624.82959     -3988.1553      0             -3905.5322     -3999.1475      14130.775    
     13900   596.00167     -3984.8461      0             -3906.0349      3555.552       14033.234    
     14000   593.88493     -3986.137       0             -3907.6058     -889.56274      14087.527    
     14100   599.10869     -3988.8822      0             -3909.6602     -2199.5962      14094.887    
     14200   597.98485     -3988.4718      0             -3909.3984      3705.8439      14014.765    
     14300   599.16176     -3988.5936      0             -3909.3645     -2794.1385      14094.471    
     14400   619.78564     -3989.6493      0             -3907.6931     -291.94244      14071.473    
     14500   613.22639     -3987.9036      0             -3906.8147      1561.341       14064.884    
     14600   607.73748     -3987.6387      0             -3907.2757     -4298.892       14124.345    
     14700   590.97546     -3987.4499      0             -3909.3034      4226.5428      14019.68     
     14800   565.92752     -3986.9844      0             -3912.15       -211.16162      14067.536    
     14900   599.78327     -3990.9352      0             -3911.624      -871.87043      14069.53     
     15000   609.77931     -3989.6123      0             -3908.9792      1531.0893      14042.332    
     15100   635.71632     -3991.9904      0             -3907.9276     -4197.0083      14101.604    
     15200   597.2635      -3987.2968      0             -3908.3188      2751.3424      14030.7      
     15300   596.15506     -3989.3439      0             -3910.5124     -21.248273      14067.016    
     15400   598.22197     -3991.6772      0             -3912.5724     -3561.4387      14092.199    
     15500   599.96735     -3992.0581      0             -3912.7225      3470.4506      13991.038    
     15600   592.22559     -3990.0562      0             -3911.7444     -1771.5112      14072.756    
     15700   627.37908     -3992.0343      0             -3909.074      -2419.7638      14079.457    
     15800   618.44072     -3988.889       0             -3907.1107      3406.1539      14021.459    
     15900   613.99814     -3989.2107      0             -3908.0198     -3559.3868      14101.448    
     16000   605.69964     -3989.1466      0             -3909.053       707.76298      14051.192    
     16100   591.53674     -3989.8481      0             -3911.6274      2524.0196      14022.819    
     16200   585.0069      -3991.9768      0             -3914.6195     -3769.3008      14078.231    
     16300   585.07418     -3991.6789      0             -3914.3127      3381.8397      14007.891    
     16400   596.07973     -3990.5483      0             -3911.7268      211.58149      14046.829    
     16500   582.86426     -3986.8261      0             -3909.7521     -1497.15        14099.143    
     16600   613.46462     -3988.9361      0             -3907.8158      552.43677      14057.94     
     16700   602.27719     -3988.3929      0             -3908.7519     -462.59089      14048.878    
     16800   590.19767     -3990.4331      0             -3912.3895      495.61056      14043.56     
     16900   611.07299     -3995.3312      0             -3914.5271     -603.22857      14030.763    
     17000   577.24359     -3991.1314      0             -3914.8007      1176.3589      14029.187    
     17100   620.72626     -3996.152       0             -3914.0714     -1263.3845      14050.483    
     17200   602.46981     -3993.7607      0             -3914.0942      580.75381      14016.223    
     17300   600.03014     -3995.3804      0             -3916.0366      909.32254      14017.931    
     17400   595.09429     -3996.8516      0             -3918.1604     -1131.2006      14036.77     
     17500   585.69573     -3996.1618      0             -3918.7134      2057.4152      13997.727    
     17600   576.16375     -3993.0926      0             -3916.9047      107.02375      14032.238    
     17700   604.26025     -3993.3955      0             -3913.4922     -18.807527      14037.988    
     17800   603.17841     -3992.6966      0             -3912.9364      1254.401       14015.602    
     17900   586.4834      -3992.1873      0             -3914.6348     -1413.3568      14048.253    
     18000   596.46223     -3996.4449      0             -3917.5728      618.79884      14007.865    
     18100   601.66624     -4000.3781      0             -3920.8179      1091.9761      14002.186    
     18200   597.83101     -4001.4796      0             -3922.4265     -2788.4558      14028.264    
     18300   595.25601     -4000.9721      0             -3922.2595      3424.4421      13957.847    
     18400   597.53351     -3999.0676      0             -3920.0538     -2196.1892      14036.23     
     18500   620.80822     -4000.4178      0             -3918.3264      242.37591      14014.962    
     18600   620.84196     -4001.5451      0             -3919.4492      1106.2618      13993.676    
     18700   605.65259     -4002.4237      0             -3922.3363     -3403.5687      14051.325    
     18800   605.98528     -4003.3176      0             -3923.1863      985.3252       13973.299    
     18900   594.17818     -4001.4475      0             -3922.8775      1947.5237      13973.748    
     19000   595.77324     -4000.2946      0             -3921.5136     -3522.8828      14050.59     
     19100   601.29308     -3998.7697      0             -3919.2589      3530.3202      13970.129    
     19200   618.21464     -4001.0438      0             -3919.2954     -1815.4051      14019.995    
     19300   600.66865     -4002.034       0             -3922.6057     -1991.8145      14022.818    
     19400   602.16236     -4004.9282      0             -3925.3023      2417.9131      13935.591    
     19500   581.69151     -4003.5476      0             -3926.6287     -1097.0319      13997.903    
     19600   577.36943     -3998.2985      0             -3921.9511     -1289.8849      14027.518    
     19700   609.46608     -3998.8281      0             -3918.2365      3084.4221      13964.812    
     19800   594.90958     -3999.5185      0             -3920.8517     -2049.9519      14017.254    
     19900   603.61615     -4003.6733      0             -3923.8552      566.45911      13976.899    
     20000   615.99124     -4006.0389      0             -3924.5844      1153.7284      13950.554    
     20100   598.1373      -4004.7972      0             -3925.7036     -2721.9249      14009.684    
     20200   577.1711      -4000.1736      0             -3923.8524      2068.6941      13978.393    
     20300   626.82094     -4003.0381      0             -3920.1516      27.106535      14004.746    
     20400   598.68994     -4000.2849      0             -3921.1183     -1805.9004      14022.575    
     20500   585.02954     -4002.9933      0             -3925.633       4423.0987      13937.054    
     20600   580.45533     -4004.2135      0             -3927.4581     -3299.7776      14010.905    
     20700   593.54139     -4004.0059      0             -3925.5201      790.39052      13974.337    
     20800   595.59748     -4002.7806      0             -3924.0228      2648.1869      13960.691    
     20900   603.04491     -4002.6496      0             -3922.9071     -3330.9607      14042.703    
     21000   624.67125     -4002.2288      0             -3919.6266      1109.7127      13974.038    
     21100   630.01161     -4002.8406      0             -3919.5322      844.45928      13981.331    
     21200   608.08994     -4004.7028      0             -3924.2931     -3601.004       14022.293    
     21300   613.64101     -4007.9156      0             -3926.7719      3885.8299      13915.819    
     21400   603.47303     -4008.6454      0             -3928.8463     -2602.4761      13994.806    
     21500   585.88173     -4006.5143      0             -3929.0414     -1447.4702      13990.434    
     21600   615.70666     -4005.7508      0             -3924.334       4548.5911      13922.821    
     21700   618.22702     -4003.5613      0             -3921.8112     -5201.921       14050.843    
     21800   619.0092      -4005.0166      0             -3923.1631      1770.4144      13968.458    
     21900   615.84697     -4008.3517      0             -3926.9163      2380.3809      13950.591    
     22000   593.01656     -4006.3121      0             -3927.8957     -5897.0455      14055.352    
     22100   601.03377     -4007.5787      0             -3928.1022      4358.8406      13914.077    
     22200   622.31289     -4010.2291      0             -3927.9387     -1200.9972      13968.306    
     22300   593.23263     -4006.4179      0             -3927.9729     -3604.7265      14008.87     
     22400   622.79744     -4008.9412      0             -3926.5868      5907.6352      13894.698    
     22500   591.53599     -4004.6961      0             -3926.4755     -3734.4045      14022.062    
     22600   603.03306     -4005.4626      0             -3925.7217     -541.42318      13979.996    
     22700   632.96083     -4010.0098      0             -3926.3114      2721.7857      13929.59     
     22800   592.74975     -4008.8916      0             -3930.5104     -4475.6996      14022.005    
     22900   608.27984     -4011.6174      0             -3931.1826      2855.01        13922.127    
     23000   601.50006     -4009.9619      0             -3930.4236     -400.04247      13968.611    
     23100   595.6762      -4003.369       0             -3924.6009     -3051.102       14033.552    
     23200   609.38383     -4004.0326      0             -3923.4519      3770.2858      13942.126    
     23300   585.84823     -4005.4831      0             -3928.0146     -8.8056351      13992.402    
     23400   583.18038     -4006.1848      0             -3929.0691     -2432.0227      14004.691    
     23500   610.73424     -4009.3702      0             -3928.6109      3144.6176      13921.431    
     23600   598.66553     -4007.3052      0             -3928.1418     -1968.3272      13987.645    
     23700   600.67215     -4005.7816      0             -3926.3528      465.61988      13970.255    
     23800   629.22165     -4008.4619      0             -3925.2579      847.38554      13955.998    
     23900   587.96666     -4006.8019      0             -3929.0533     -2526.5419      13992.071    
     24000   578.58255     -4008.2892      0             -3931.7814      2924.5022      13921.577    
     24100   580.33488     -4008.6647      0             -3931.9252     -238.64813      13966.349    
     24200   598.47823     -4008.0865      0             -3928.9478     -849.91618      13980.486    
     24300   618.68676     -4005.2871      0             -3923.4762      2205.733       13944.24     
     24400   609.46304     -4005.9083      0             -3925.3171     -2740.551       14003.954    
     24500   611.54511     -4009.5528      0             -3928.6863      104.97656      13944.853    
     24600   601.74177     -4009.7388      0             -3930.1686      2085.5908      13924.161    
     24700   585.47593     -4009.003       0             -3931.5837     -1880.0036      13992.449    
     24800   560.61441     -4005.9276      0             -3931.7958      2347.1474      13943.807    
     24900   610.37365     -4007.8918      0             -3927.1802      733.64915      13954.273    
     25000   593.85409     -4003.7058      0             -3925.1786     -1272.6982      13996.709    
     25100   600.86567     -4005.2301      0             -3925.7757      1617.7028      13949.389    
     25200   601.66609     -4011.5746      0             -3932.0144     -538.41544      13953.03     
     25300   587.85282     -4010.2692      0             -3932.5356     -957.4025       13956.652    
     25400   577.18133     -4006.8012      0             -3930.4787      2757.9546      13930.774    
     25500   613.18052     -4008.8876      0             -3927.8048     -2612.0777      13982.992    
     25600   619.06704     -4009.7113      0             -3927.8502      1099.9864      13945.028    
     25700   591.91653     -4010.4622      0             -3932.1912     -254.0463       13963.097    
     25800   600.35337     -4013.4944      0             -3934.1078     -3579.2787      13989.393    
     25900   578.44497     -4009.2075      0             -3932.718       4639.4212      13901.549    
     26000   603.27081     -4008.9191      0             -3929.1467     -2518.0195      13988.546    
     26100   616.12955     -4006.4474      0             -3924.9747      23.732999      13980.005    
     26200   617.38121     -4006.7699      0             -3925.1317      3177.1181      13926.043    
     26300   605.16692     -4012.33        0             -3932.3069     -3773.845       13988.981    
     26400   575.63735     -4009.3996      0             -3933.2813      2112.0015      13922.324    
     26500   599.98189     -4010.2739      0             -3930.9364      1239.0576      13933.717    
     26600   588.04396     -4005.6242      0             -3927.8653     -3622.565       14013.955    
     26700   615.23094     -4007.5845      0             -3926.2306      2720.0292      13929.778    
     26800   594.66301     -4008.0093      0             -3929.3752     -531.76682      13971.935    
     26900   590.87471     -4011.6786      0             -3933.5453     -2675.8717      13985.714    
     27000   592.2597      -4011.0966      0             -3932.7803      5207.5896      13894.792    
     27100   592.96658     -4010.0315      0             -3931.6217     -3464.6582      14011.758    
     27200   617.25751     -4009.8042      0             -3928.1823      61.46733       13969.321    
     27300   615.01589     -4008.3057      0             -3926.9802      3493.8705      13925.996    
     27400   599.88363     -4010.7459      0             -3931.4214     -4938.1626      14015.994    
     27500   586.39014     -4013.1597      0             -3935.6195      3463.3976      13890.348    
     27600   604.82778     -4014.0818      0             -3934.1035      1489.9408      13918.298    
     27700   592.36407     -4008.8775      0             -3930.5474     -4955.1867      14018.046    
     27800   629.68591     -4010.5967      0             -3927.3314      3326.192       13914.364    
     27900   635.12873     -4012.8679      0             -3928.8828     -1476.6461      13962.058    
     28000   575.3151      -4008.2518      0             -3932.1761     -583.3127       13971.696    
     28100   614.00461     -4013.2908      0             -3932.099       1523.5742      13908.2      
     28200   580.75768     -4009.8069      0             -3933.0115      513.59541      13941.637    
     28300   584.1643      -4010.9976      0             -3933.7517     -2607.1686      13979.22     
     28400   614.3451      -4016.2517      0             -3935.0149      2042.1509      13914.096    
     28500   597.02266     -4014.7792      0             -3935.8331     -2890.6695      13984.911    
     28600   602.7129      -4012.4061      0             -3932.7075     -641.68045      13956.274    
     28700   584.52057     -4008.0723      0             -3930.7793      4218.2709      13908.846    
     28800   592.15011     -4009.4213      0             -3931.1195     -4783.1795      14009.291    
     28900   595.12766     -4014.3718      0             -3935.6762      2459.7468      13902.105    
     29000   594.19765     -4016.9759      0             -3938.4033      922.41624      13914.088    
     29100   581.00543     -4015.1109      0             -3938.2827     -2932.9549      13963.289    
     29200   607.16271     -4015.1917      0             -3934.9047      2691.0915      13891.24     
     29300   596.16652     -4013.6134      0             -3934.7805     -1579.1899      13949.428    
     29400   599.96233     -4014.4413      0             -3935.1064      128.92561      13934.571    
     29500   595.30741     -4014.8427      0             -3936.1233      1976.95        13916.246    
     29600   585.95207     -4017.1797      0             -3939.6974     -2600.744       13957.889    
     29700   592.91745     -4020.1754      0             -3941.772       893.71878      13900.192    
     29800   590.46636     -4017.1753      0             -3939.0961     -152.64147      13926.43     
     29900   592.79702     -4013.6133      0             -3935.2259     -2577.4053      13958.915    
     30000   617.80993     -4016.0546      0             -3934.3597      1731.7591      13896.569    
     30100   590.17625     -4014.7175      0             -3936.6767     -615.60609      13932.888    
     30200   602.03941     -4019.4254      0             -3939.8158     -1557.87        13934.073    
     30300   570.21626     -4018.1233      0             -3942.7218      2432.702       13886.178    
     30400   594.53517     -4017.7715      0             -3939.1542     -1727.899       13933.727    
     30500   601.87854     -4014.3501      0             -3934.7618      626.82321      13918.431    
     30600   606.6711      -4015.4671      0             -3935.2451      1214.3109      13913.088    
     30700   608.96976     -4018.5417      0             -3938.0157     -3832.7866      13957.264    
     30800   604.95653     -4020.2786      0             -3940.2833      2861.0894      13876.414    
     30900   617.82137     -4022.446       0             -3940.7495     -2098.8453      13914.78     
     31000   611.99654     -4018.9175      0             -3937.9913     -329.5605       13914.611    
     31100   620.50237     -4016.5978      0             -3934.5469      1100.6066      13912.115    
     31200   632.4986      -4017.8057      0             -3934.1685     -3230.2024      13965.172    
     31300   603.09459     -4017.559       0             -3937.8099      4.1905         13919.252    
     31400   578.75167     -4017.3953      0             -3940.8652      2773.6322      13886.422    
     31500   575.96609     -4017.0316      0             -3940.8698     -3215.2655      13953.279    
     31600   596.54868     -4017.5624      0             -3938.6789      1450.2815      13898.292    
     31700   582.97549     -4014.8683      0             -3937.7796      1148.9562      13923.037    
     31800   594.76372     -4015.8274      0             -3937.1799     -2647.7197      13974.35     
     31900   606.88552     -4016.8529      0             -3936.6025      3127.4029      13888.335    
     32000   584.25883     -4016.1514      0             -3938.8931     -1741.383       13938.966    
     32100   573.13058     -4019.1955      0             -3943.4087     -1130.503       13930.048    
     32200   583.22134     -4019.8232      0             -3942.702       4389.0556      13846.778    
     32300   586.04186     -4016.116       0             -3938.6218     -2487.328       13951.137    
     32400   601.18241     -4016.0379      0             -3936.5417     -1621.2554      13948.984    
     32500   619.37949     -4017.8289      0             -3935.9264      3256.3389      13870.766    
     32600   576.83235     -4014.3913      0             -3938.115      -3348.9301      13962.256    
     32700   599.75899     -4018.9478      0             -3939.6398      813.8119       13899.083    
     32800   570.67094     -4019.8691      0             -3944.4075      2239.3742      13878.25     
     32900   576.60722     -4020.9717      0             -3944.7251     -4892.6189      13972.365    
     33000   601.47483     -4019.9511      0             -3940.4162      5841.5443      13846.422    
     33100   574.38981     -4015.1548      0             -3939.2014     -2090.3791      13948.151    
     33200   593.96508     -4015.6415      0             -3937.0997     -2336.2609      13970.256    
     33300   615.32003     -4017.2828      0             -3935.9171      6883.3655      13843.662    
     33400   568.95269     -4015.619       0             -3940.3846     -4698.7679      13997.666    
     33500   581.79166     -4020.0965      0             -3943.1644      544.7694       13908.25     
     33600   595.30265     -4020.9139      0             -3942.1951      5200.1888      13837.589    
     33700   586.44571     -4016.2703      0             -3938.7228     -6583.2543      14016.126    
     33800   623.4353      -4017.2734      0             -3934.8346      3962.3653      13884.133    
     33900   610.19962     -4016.7669      0             -3936.0783      1044.2105      13916.586    
     34000   593.97765     -4017.1867      0             -3938.6431     -4113.2244      13982.011    
     34100   578.32878     -4016.4983      0             -3940.0241      5258.239       13860.455    
     34200   602.90842     -4019.5187      0             -3939.7942     -1866.4606      13940.227    
     34300   589.83631     -4016.5102      0             -3938.5143     -1077.8984      13949.705    
     34400   616.12434     -4017.4506      0             -3935.9785      1308.1167      13892.929    
     34500   581.55118     -4014.5304      0             -3937.6301     -185.95867      13937.979    
     34600   606.40107     -4020.5914      0             -3940.4051     -1381.8371      13930.259    
     34700   584.80849     -4020.3185      0             -3942.9874      3187.2077      13880.018    
     34800   569.99164     -4021.0104      0             -3945.6387     -2517.0107      13955.409    
     34900   573.23543     -4019.8325      0             -3944.0318      1529.7689      13902.699    
     35000   608.40941     -4019.4841      0             -3939.0322      2787.215       13891.934    
     35100   599.65363     -4017.2023      0             -3937.9082     -3981.4409      13983.522    
     35200   602.0474      -4016.7841      0             -3937.1735      4182.6949      13886.968    
     35300   600.2828      -4020.2312      0             -3940.8539     -1497.9817      13930.211    
     35400   595.61821     -4022.4034      0             -3943.6429     -2736.055       13937.404    
     35500   584.93041     -4019.9085      0             -3942.5613      4693.0585      13847.883    
     35600   598.47235     -4019.9043      0             -3940.7664     -2613.2914      13945.268    
     35700   602.8422      -4018.0258      0             -3938.3101     -719.06097      13922.794    
     35800   593.52408     -4015.9304      0             -3937.4468      3427.3411      13872.32     
     35900   592.05723     -4016.6468      0             -3938.3573     -3588.0216      13952.984    
     36000   602.43225     -4018.4504      0             -3938.7889      1871.0555      13883.884    
     36100   590.87718     -4018.912       0             -3940.7785      1030.3683      13895.969    
     36200   574.53343     -4018.5582      0             -3942.5859     -3094.513       13945.28     
     36300   601.57326     -4020.4421      0             -3940.8942      3359.9396      13860.056    
     36400   626.02757     -4019.032       0             -3936.2504     -1469.8816      13930.32     
     36500   591.76504     -4013.2454      0             -3934.9945     -1034.3425      13942.246    
     36600   617.34638     -4017.1538      0             -3935.5201      1978.4781      13887.129    
     36700   590.23249     -4019.7856      0             -3941.7373     -1505.9227      13908.57     
     36800   588.55417     -4020.1426      0             -3942.3162      1664.5907      13876.028    
     36900   589.00285     -4017.8826      0             -3939.9969      50.428329      13912.153    
     37000   602.23629     -4016.7609      0             -3937.1253     -1365.4095      13928.915    
     37100   617.86911     -4018.5488      0             -3936.8461      1036.48        13905.604    
     37200   585.20088     -4019.7507      0             -3942.3677     -2537.9018      13925.96     
     37300   597.79538     -4023.3308      0             -3944.2825      2007.592       13862.21     
     37400   606.87943     -4023.2949      0             -3943.0454      466.54837      13891.918    
     37500   606.54252     -4019.8926      0             -3939.6875     -2960.7503      13952.234    
     37600   614.40115     -4019.0861      0             -3937.8419      2174.3253      13887.374    
     37700   613.78143     -4020.2488      0             -3939.0865      319.82326      13908.46     
     37800   602.60693     -4020.6657      0             -3940.9811     -2964.5436      13936.736    
     37900   591.9236      -4020.1776      0             -3941.9057      3294.1955      13860.225    
     38000   586.87494     -4020.0889      0             -3942.4846     -1881.9226      13921.565    
     38100   595.89627     -4019.7327      0             -3940.9354      290.18211      13905.172    
     38200   627.58597     -4020.2068      0             -3937.2191      427.86556      13903.399    
     38300   606.9051      -4017.8982      0             -3937.6453     -2571.1433      13939.975    
     38400   621.87029     -4023.7695      0             -3941.5377      2209.133       13853.769    
     38500   599.39335     -4023.778       0             -3944.5183      119.10632      13881.251    
     38600   595.62566     -4022.0324      0             -3943.2709     -2692.3192      13922.839    
     38700   594.16702     -4019.8721      0             -3941.3036      3176.2998      13850.085    
     38800   599.32184     -4019.0764      0             -3939.8262     -1111.4403      13916.06     
     38900   615.32096     -4017.9546      0             -3936.5887     -1153.8281      13919.912    
     39000   622.58056     -4014.4896      0             -3932.1638      1898.4167      13886.742    
     39100   603.35854     -4015.126       0             -3935.3421     -2538.6257      13944.784    
     39200   625.31651     -4021.7649      0             -3939.0774      1191.0483      13872.561    
     39300   590.08464     -4019.5429      0             -3941.5142      1344.2498      13873.271    
     39400   590.82352     -4019.7556      0             -3941.6292     -2847.4122      13934.744    
     39500   608.47477     -4019.2022      0             -3938.7416      1626.6403      13859.071    
     39600   609.34059     -4016.4998      0             -3935.9248      1980.269       13880.619    
     39700   569.05928     -4013.8027      0             -3938.5542     -3841.2367      13961.863    
     39800   610.50489     -4024.2104      0             -3943.4814      4024.6077      13834.85     
     39900   579.82594     -4021.6335      0             -3944.9613     -434.09567      13891.472    
     40000   588.77919     -4020.1635      0             -3942.3074     -3389.3145      13951.763    
     40100   607.14639     -4020.2929      0             -3940.0081      4158.9799      13858.37     
     40200   619.64388     -4022.1131      0             -3940.1757     -3051.2963      13928.145    
     40300   604.72663     -4021.4603      0             -3941.4954     -595.4141       13891.02     
     40400   585.85168     -4023.6544      0             -3946.1854      2814.1318      13843.101    
     40500   581.27044     -4024.6863      0             -3947.8231     -3003.753       13911.732    
     40600   603.28198     -4023.8306      0             -3944.0568      557.5057       13866.647    
     40700   595.77245     -4020.6429      0             -3941.862       1172.2177      13870.548    
     40800   576.94949     -4017.0332      0             -3940.7414     -1300.0296      13907.889    
     40900   603.70327     -4018.5729      0             -3938.7433      896.1375       13878.024    
     41000   598.57284     -4016.2962      0             -3937.1451     -253.60309      13913.508    
     41100   607.09942     -4015.4876      0             -3935.209      -448.20979      13919.474    
     41200   607.54624     -4018.3126      0             -3937.9749      747.9973       13886.832    
     41300   608.6001      -4023.1399      0             -3942.6628     -105.77706      13890.674    
     41400   607.78961     -4024.1818      0             -3943.8118     -302.88664      13895.357    
     41500   592.35775     -4021.6135      0             -3943.2841     -1025.368       13887.021    
     41600   611.83446     -4020.4111      0             -3939.5063      2322.5347      13874.987    
     41700   625.03081     -4018.3552      0             -3935.7054     -4120.0237      13950.266    
     41800   612.51553     -4017.7891      0             -3936.7943      2396.3004      13873.126    
     41900   624.35532     -4022.5016      0             -3939.9412      330.31372      13891.576    
     42000   605.04101     -4020.7055      0             -3940.699      -4509.9018      13954.66     
     42100   596.938       -4021.1952      0             -3942.2602      5293.6728      13835.004    
     42200   596.13429     -4022.9996      0             -3944.1709     -2529.7626      13920.015    
     42300   584.13979     -4022.0078      0             -3944.7652     -1645.4467      13916.685    
     42400   603.15508     -4021.6799      0             -3941.9228      5093.1531      13839.985    
     42500   597.78618     -4017.723       0             -3938.6759     -4188.7541      13972.76     
     42600   613.30866     -4019.1691      0             -3938.0694      447.31361      13897.662    
     42700   619.59393     -4024.6594      0             -3942.7286      3327.5004      13842.049    
     42800   588.75643     -4023.9493      0             -3946.0962     -5263.3788      13943.681    
     42900   586.59641     -4022.3452      0             -3944.7777      4213.4377      13837.23     
     43000   599.2752      -4020.4223      0             -3941.1782      108.23941      13895.055    
     43100   584.749       -4017.2425      0             -3939.9193     -2398.4129      13941.25     
     43200   615.0585      -4021.1048      0             -3939.7737      3270.4691      13848.632    
     43300   595.90938     -4021.7311      0             -3942.9322     -2252.4932      13910.462    
     43400   576.4959      -4020.6361      0             -3944.4042      176.68252      13892.466    
     43500   601.54145     -4022.9485      0             -3943.4048      1563.7567      13866.116    
     43600   596.50826     -4021.3166      0             -3942.4384     -1774.5756      13915.861    
     43700   612.19288     -4021.0647      0             -3940.1125      2191.3511      13879.176    
     43800   605.1941      -4019.8439      0             -3939.8172      244.57007      13915.882    
     43900   588.34367     -4021.0131      0             -3943.2145     -1347.0207      13922.633    
     44000   595.45795     -4025.2855      0             -3946.5463      3377.0983      13841.57     
     44100   590.24155     -4025.856       0             -3947.8065     -1620.6469      13913.619    
     44200   631.55812     -4026.5888      0             -3943.0759     -1618.0206      13917.27     
     44300   608.74897     -4022.3416      0             -3941.8448      3094.6563      13881.057    
     44400   596.1824      -4021.7477      0             -3942.9126     -3543.1348      13949.013    
     44500   596.04679     -4024.2211      0             -3945.404       3153.7603      13850.356    
     44600   607.19235     -4027.559       0             -3947.2681     -565.06498      13881.804    
     44700   607.50592     -4026.2262      0             -3945.8938     -2234.8675      13899.406    
     44800   613.04887     -4022.2012      0             -3941.1359      2792.8655      13850.573    
     44900   630.77456     -4023.0932      0             -3939.6839     -3867.8492      13941.986    
     45000   613.55277     -4023.2713      0             -3942.1393     -28.770444      13884.602    
     45100   600.68085     -4025.7405      0             -3946.3106      2553.0847      13842.073    
     45200   588.6003      -4025.6123      0             -3947.7798     -2401.3525      13908.681    
     45300   593.04854     -4024.8308      0             -3946.4102      773.47044      13875.455    
     45400   590.08987     -4022.1317      0             -3944.1022      1287.1814      13883.036    
     45500   595.25724     -4020.7859      0             -3942.0732     -1290.2068      13916.842    
     45600   609.9257      -4022.4927      0             -3941.8403      1626.8497      13886.797    
     45700   581.10681     -4024.4418      0             -3947.6002     -1835.4592      13916.016    
     45800   559.04163     -4023.2983      0             -3949.3744      2818.2765      13860.049    
     45900   593.37826     -4024.427       0             -3945.9628      340.8312       13880.045    
     46000   618.72816     -4024.7961      0             -3942.9798     -2354.8445      13904.686    
     46100   599.18333     -4022.2566      0             -3943.0247      1467.7854      13867.681    
     46200   593.94729     -4023.7928      0             -3945.2533     -1577.8837      13897.463    
     46300   561.54468     -4024.5829      0             -3950.3281      2342.9036      13856.998    
     46400   569.90202     -4025.2384      0             -3949.8784     -1161.1655      13882.197    
     46500   598.01682     -4025.5236      0             -3946.4459     -111.44328      13882.707    
     46600   620.78599     -4026.7858      0             -3944.6973     -1353.5287      13882.05     
     46700   594.48961     -4023.085       0             -3944.4738      1629.048       13872.413    
     46800   589.49904     -4022.9734      0             -3945.0221     -177.15486      13897.512    
     46900   610.132       -4025.0028      0             -3944.3231     -2143.893       13904.373    
     47000   630.97784     -4025.4303      0             -3941.9942      2175.4912      13867.936    
     47100   596.07497     -4021.7107      0             -3942.8899     -1036.1879      13918.477    
     47200   596.90042     -4025.3018      0             -3946.3717     -868.69703      13896.151    
     47300   567.25431     -4024.2334      0             -3949.2236      3717.7979      13842.334    
     47400   588.12159     -4025.6022      0             -3947.8331     -3387.4524      13918.409    
     47500   625.81865     -4024.2022      0             -3941.4483      934.7948       13868.985    
     47600   598.35954     -4021.5331      0             -3942.4101      1495.2339      13878.608    
     47700   604.33615     -4023.532       0             -3943.6188     -3910.5332      13935.982    
     47800   600.12289     -4024.8034      0             -3945.4473      2992.0267      13838.716    
     47900   594.37241     -4026.6647      0             -3948.069      -955.77829      13883.063    
     48000   588.63203     -4027.4196      0             -3949.5829     -2094.8126      13895.014    
     48100   589.15653     -4022.7524      0             -3944.8464      3479.8909      13852.133    
     48200   628.26049     -4025.5226      0             -3942.4458     -4441.6488      13940.3      
     48300   596.29112     -4022.3585      0             -3943.5091      3080.1139      13868.883    
     48400   582.5409      -4023.221       0             -3946.1897      462.0399       13878.732    
     48500   590.31873     -4026.3405      0             -3948.2808     -3055.8356      13914.387    
     48600   622.64171     -4027.7979      0             -3945.464       4017.0676      13812.189    
     48700   603.2654      -4021.5187      0             -3941.747      -2400.7878      13922.589    
     48800   598.7883      -4019.8823      0             -3940.7026     -3650.7194      13951.686    
     48900   606.30907     -4022.4488      0             -3942.2747      7435.1146      13794.225    
     49000   561.39518     -4022.2701      0             -3948.0351     -4623.4013      13948.871    
     49100   573.86266     -4023.4454      0             -3947.5617      670.7257       13864.817    
     49200   604.88155     -4024.2046      0             -3944.2192      6695.1809      13792.83     
     49300   613.07069     -4023.0428      0             -3941.9746     -8628.4099      14002.797    
     49400   629.93072     -4024.1447      0             -3940.847       3325.5302      13840.329    
     49500   578.05773     -4022.7686      0             -3946.3302      3593.3515      13840.528    
     49600   586.09414     -4026.1444      0             -3948.6434     -5712.9309      13947.745    
     49700   590.04286     -4025.5899      0             -3947.5667      5684.3243      13807.201    
     49800   597.09907     -4023.1856      0             -3944.2293     -2657.8098      13910.871    
     49900   612.54691     -4022.9132      0             -3941.9142     -1612.5885      13910.111    
     50000   612.10159     -4024.5791      0             -3943.6389      3294.3264      13841.692    
     50100   582.67109     -4026.8502      0             -3949.8017     -4226.3895      13918.769    
     50200   599.6781      -4028.9615      0             -3949.6642      2412.532       13834.566    
     50300   594.19102     -4025.4469      0             -3946.8752      391.19657      13856.742    
     50400   624.00634     -4025.2545      0             -3942.7402     -3036.1668      13926.289    
     50500   608.18523     -4023.0929      0             -3942.6707      1847.3981      13856.071    
     50600   598.82963     -4024.3846      0             -3945.1995      157.48931      13869.949    
     50700   594.23598     -4026.073       0             -3947.4953     -1424.381       13892.838    
     50800   581.8304      -4026.3802      0             -3949.4429      3069.2322      13832.607    
     50900   583.23564     -4028.9866      0             -3951.8635     -2246.4636      13875.043    
     51000   582.59174     -4026.6758      0             -3949.6378      1310.2106      13844.396    
     51100   601.5686      -4024.9014      0             -3945.3541      562.23774      13877.644    
     51200   609.5674      -4024.4179      0             -3943.8129     -1607.3875      13906.831    
     51300   589.94435     -4022.414       0             -3944.4038      3346.5065      13854.129    
     51400   568.82862     -4022.2019      0             -3946.9839     -647.08753      13896.249    
     51500   574.28448     -4026.2486      0             -3950.3092      13.305123      13866.535    
     51600   570.28666     -4025.1739      0             -3949.7632      2419.2441      13848.003    
     51700   598.04406     -4022.9387      0             -3943.8574     -2329.53        13926.205    
     51800   614.933       -4024.3318      0             -3943.0173     -401.91696      13885.935    
     51900   602.33982     -4025.6361      0             -3945.9868      2272.449       13848.27     
     52000   574.89363     -4024.2714      0             -3948.2514     -2677.6856      13904.537    
     52100   595.56023     -4025.8452      0             -3947.0924      2262.5985      13841.118    
     52200   614.05718     -4024.7815      0             -3943.5828      78.468007      13885.043    
     52300   617.3873      -4020.4971      0             -3938.8581     -3050.5454      13938.239    
     52400   629.90745     -4023.3312      0             -3940.0365      2718.1962      13857.091    
     52500   602.46146     -4023.8824      0             -3944.217      -1007.6616      13906.709    
     52600   599.21781     -4024.8542      0             -3945.6177     -1899.8936      13909.861    
     52700   598.45731     -4025.1621      0             -3946.0263      3565.4206      13834.658    
     52800   580.90631     -4025.6298      0             -3948.8148     -2486.2159      13907.7      
     52900   575.50538     -4026.4916      0             -3950.3907     -383.51704      13876.437    
     53000   597.98233     -4027.2111      0             -3948.138       4169.3585      13834.181    
     53100   623.57525     -4026.1659      0             -3943.7086     -4534.1259      13944.205    
     53200   603.71964     -4021.6194      0             -3941.7876      1427.6054      13886.625    
     53300   626.7658      -4025.7604      0             -3942.8812      33.445261      13885.721    
     53400   587.66162     -4026.5686      0             -3948.8602     -2933.6726      13910.798    
     53500   594.8308      -4027.546       0             -3948.8896      3584.1324      13833.692    
     53600   599.01251     -4025.599       0             -3946.3897     -2350.1344      13906.298    
     53700   612.80263     -4024.7484      0             -3943.7156      216.19825      13870.778    
     53800   586.77056     -4020.6736      0             -3943.0831      2764.1266      13848.231    
     53900   602.33197     -4025.3226      0             -3945.6744     -3512.7262      13928.394    
     54000   588.81075     -4027.8952      0             -3950.035       1647.4452      13845.161    
     54100   580.67678     -4027.8469      0             -3951.0622      2125.0045      13845.913    
     54200   593.17328     -4025.756       0             -3947.3188     -3612.3611      13928.389    
     54300   610.86489     -4024.809       0             -3944.0324      3146.924       13852.635    
     54400   601.7542      -4024.172       0             -3944.6002     -362.49886      13898.069    
     54500   606.36864     -4027.6174      0             -3947.4354     -2824.0151      13898.888    
     54600   580.0566      -4025.9979      0             -3949.2952      3467.4071      13825.86     
     54700   590.81924     -4026.7091      0             -3948.5832     -2355.8277      13891.66     
     54800   630.21043     -4024.8269      0             -3941.4922      1251.5559      13864.305    
     54900   627.96449     -4024.9644      0             -3941.9267     -1425.4917      13889.219    
     55000   608.58604     -4025.9492      0             -3945.474      -606.44766      13888.193    
     55100   599.86952     -4027.5945      0             -3948.2719      1003.3304      13848.464    
     55200   606.23579     -4029.9503      0             -3949.7859     -490.75379      13869.563    
     55300   581.60797     -4025.9195      0             -3949.0116     -588.53344      13876.008    
     55400   629.54568     -4027.0685      0             -3943.8217      2309.5684      13839.123    
     55500   597.55079     -4023.1458      0             -3944.1298     -2446.2529      13913.377    
     55600   605.61758     -4026.7569      0             -3946.6742      761.62554      13868.899    
     55700   596.08219     -4029.8068      0             -3950.985       1493.333       13849.953    
     55800   563.92015     -4025.8217      0             -3951.2527     -1569.591       13908.519    
     55900   587.552       -4026.4861      0             -3948.7923      2121.1685      13852.37     
     56000   597.31306     -4026.3222      0             -3947.3376      597.65292      13871.717    
     56100   609.14609     -4026.3547      0             -3945.8054     -1701.7547      13897.895    
     56200   629.97017     -4026.2385      0             -3942.9356      2477.7421      13858.925    
     56300   613.85514     -4022.2846      0             -3941.1126     -3050.2702      13923.438    
     56400   596.09836     -4022.8005      0             -3943.9765      1058.3942      13872.929    
     56500   616.57906     -4029.307       0             -3947.7748      911.02425      13845.271    
     56600   588.79186     -4027.7306      0             -3949.8728     -1477.6864      13882.681    
     56700   616.30442     -4030.1573      0             -3948.6614      114.74526      13867.279    
     56800   608.25254     -4024.9751      0             -3944.544      -314.21084      13882.866    
     56900   627.97322     -4024.4554      0             -3941.4166     -1789.5983      13907.566    
     57000   623.58001     -4025.9764      0             -3943.5185     -4.0479628      13873.428    
     57100   610.45668     -4028.7906      0             -3948.068       814.52712      13848.31     
     57200   587.84749     -4025.9684      0             -3948.2355     -1674.329       13901.574    
     57300   590.10432     -4025.2966      0             -3947.2653      353.36297      13867.591    
     57400   608.68345     -4025.7559      0             -3945.2677      3228.3366      13830.53     
     57500   594.00929     -4023.1001      0             -3944.5524     -2919.6683      13918.421    
     57600   607.99029     -4026.3732      0             -3945.9767      1458.364       13845.18     
     57700   582.20139     -4027.2575      0             -3950.2712      1145.3721      13847.917    
     57800   571.37787     -4026.9354      0             -3951.3804     -3763.7248      13910.412    
     57900   610.05654     -4029.1249      0             -3948.4552      5707.4965      13794.26     
     58000   618.39424     -4026.6849      0             -3944.9127     -4056.5742      13933.103    
     58100   598.68518     -4020.6229      0             -3941.4569     -1090.3552      13915.552    
     58200   647.92928     -4022.3053      0             -3936.6276      5211.1344      13833.575    
     58300   629.04866     -4024.3607      0             -3941.1797     -7110.9372      13990.127    
     58400   611.92068     -4026.091       0             -3945.1748      3181.0834      13848.023    
     58500   606.33076     -4029.0285      0             -3948.8515      1955.379       13836.623    
     58600   570.93072     -4025.8837      0             -3950.3877     -4898.82        13931.723    
     58700   623.55827     -4030.3111      0             -3947.856       4718.3295      13795.107    
     58800   608.8692      -4025.2952      0             -3944.7825     -1595.7633      13899.008    
     58900   595.2626      -4020.7802      0             -3942.0667     -2943.6711      13925.391    
     59000   627.30556     -4021.2759      0             -3938.3253      6013.177       13801.947    
     59100   602.89079     -4022.7851      0             -3943.063      -4624.7759      13933.998    
     59200   597.2119      -4025.32        0             -3946.3488      1078.3851      13855.387    
[...]
    981800   605.52927     -4069.1965      0             -3989.1255      1319.5557      13553.289    
    981900   589.2908      -4067.6389      0             -3989.7151     -3611.4859      13630.321    
    982000   616.99977     -4073.0781      0             -3991.4903      3557.8198      13526.92     
    982100   579.2336      -4073.1021      0             -3996.5082     -1282.149       13560.358    
    982200   592.86083     -4074.8625      0             -3996.4666      720.49877      13544.104    
    982300   593.66539     -4072.139       0             -3993.6368      2241.8333      13529.236    
    982400   575.21495     -4068.3835      0             -3992.321      -1023.5279      13563.421    
    982500   621.2953      -4073.4654      0             -3991.3096      80.015326      13531.619    
    982600   591.82505     -4069.8511      0             -3991.5922      394.52752      13545.273    
    982700   605.34447     -4070.3588      0             -3990.3122     -1048.1332      13581.332    
    982800   583.70697     -4066.8088      0             -3989.6234      1597.16        13562.777    
    982900   560.72776     -4064.7669      0             -3990.6201      1130.0071      13571.968    
    983000   594.98103     -4070.9358      0             -3992.2596     -2129.5209      13588.597    
    983100   591.91011     -4072.0121      0             -3993.742       2200.8302      13542.481    
    983200   577.048       -4072.4978      0             -3996.1929     -222.75291      13558.038    
    983300   592.09823     -4074.744       0             -3996.449      -1592.6421      13567.615    
    983400   593.8319      -4070.3154      0             -3991.7912      3049.6089      13539.902    
    983500   598.32674     -4068.5443      0             -3989.4256     -2209.4773      13605.83     
    983600   627.66807     -4072.118       0             -3989.1194     -680.06556      13581.305    
    983700   591.32419     -4070.2771      0             -3992.0845      2644.2191      13535.205    
    983800   591.50789     -4074.5454      0             -3996.3285     -2992.3832      13576.192    
    983900   568.19654     -4072.3589      0             -3997.2244      2306.6356      13525.735    
    984000   590.79597     -4073.567       0             -3995.4442     -921.34271      13555.197    
    984100   596.06176     -4072.3902      0             -3993.5711     -668.97361      13565.333    
    984200   581.48847     -4067.6639      0             -3990.7719      1591.5109      13546.423    
    984300   605.25862     -4068.4718      0             -3988.4366     -1969.7301      13582.282    
    984400   612.49102     -4070.5155      0             -3989.5239      2055.6313      13543.347    
    984500   587.99202     -4071.8325      0             -3994.0805     -1268.433       13577.616    
    984600   563.95727     -4070.0117      0             -3995.4379      904.73766      13561.662    
    984700   590.2764      -4071.4407      0             -3993.3866      1534.6799      13550.795    
    984800   609.395       -4072.4716      0             -3991.8894     -2991.5083      13598.89     
    984900   590.0903      -4069.2085      0             -3991.179       3561.9042      13536.078    
    985000   617.45514     -4071.9098      0             -3990.2617     -1238.4996      13575.44     
    985100   601.78936     -4073.4288      0             -3993.8523     -2013.7601      13579.329    
    985200   585.1678      -4075.0996      0             -3997.721       3804.2574      13493.03     
    985300   579.14305     -4073.5254      0             -3996.9435     -1580.7693      13566.708    
    985400   610.75654     -4072.8537      0             -3992.0915     -2839.9673      13585.624    
    985500   609.51117     -4072.2323      0             -3991.6347      5009.5806      13504.052    
    985600   598.23924     -4070.7063      0             -3991.5992     -4685.1716      13620.716    
    985700   600.3703      -4069.6016      0             -3990.2128      1068.8411      13551.641    
    985800   641.72144     -4072.7414      0             -3987.8846      3426.0263      13522.051    
    985900   593.2676      -4069.0626      0             -3990.6129     -6499.7255      13645.952    
    986000   598.19307     -4073.3366      0             -3994.2357      3416.6864      13510.638    
    986100   584.1259      -4073.9051      0             -3996.6643      1462.2242      13522.61     
    986200   619.03509     -4077.2909      0             -3995.4339     -5021.2034      13603.022    
    986300   611.86993     -4070.0549      0             -3989.1454      4309.5043      13523.491    
    986400   606.29557     -4069.3699      0             -3989.1976     -3054.6655      13606.82     
    986500   612.12587     -4071.3715      0             -3990.4282     -1780.6469      13579.218    
    986600   585.11881     -4071.342       0             -3993.9699      4305.913       13497.679    
    986700   581.1475      -4072.3216      0             -3995.4746     -4156.8611      13594.936    
    986800   586.60972     -4069.9997      0             -3992.4304      2529.7544      13544.841    
    986900   618.95442     -4069.9945      0             -3988.1482      1585.5869      13563.324    
    987000   613.31089     -4070.0926      0             -3988.9926     -3214.5889      13621.167    
    987100   599.46944     -4069.4414      0             -3990.1716      2739.5254      13547.401    
    987200   601.98592     -4072.8496      0             -3993.2471     -1256.6351      13570.8      
    987300   557.39692     -4070.1215      0             -3996.4152      344.24979      13554.791    
    987400   588.13798     -4072.9604      0             -3995.1891      2998.4668      13521.744    
    987500   592.69605     -4067.6015      0             -3989.2275     -3211.1669      13606.475    
    987600   611.53348     -4068.3499      0             -3987.4849      740.61353      13558.378    
    987700   609.82884     -4070.8083      0             -3990.1688      2929.3408      13532.972    
    987800   582.60597     -4070.4357      0             -3993.3959     -3971.6641      13598.566    
    987900   598.31519     -4073.5524      0             -3994.4353      4757.716       13496.5      
    988000   584.79602     -4072.3066      0             -3994.9772     -1428.627       13562.238    
    988100   596.76174     -4070.629       0             -3991.7173     -735.53517      13575.452    
    988200   612.46032     -4068.8631      0             -3987.8755      3004.2496      13544.78     
    988300   595.39456     -4068.2375      0             -3989.5066     -3219.0148      13618.799    
    988400   604.53914     -4072.4326      0             -3992.4925      1309.2398      13554.77     
    988500   596.11617     -4073.2114      0             -3994.385       1328.415       13553.095    
    988600   583.21583     -4070.6357      0             -3993.5153     -3414.7204      13605.015    
    988700   579.48805     -4069.2993      0             -3992.6718      4554.636       13515.326    
    988800   586.85674     -4069.4686      0             -3991.8667     -97.20906       13569.017    
    988900   619.26463     -4072.3246      0             -3990.4373     -2633.4913      13585.385    
    989000   639.63874     -4071.3064      0             -3986.725       2897.9181      13509.99     
    989100   624.12538     -4070.2295      0             -3987.6995     -2250.0834      13588.039    
    989200   605.80312     -4072.7716      0             -3992.6644     -2349.5181      13579.495    
    989300   597.97384     -4072.184       0             -3993.1121      3261.3551      13520.43     
    989400   576.25824     -4068.574       0             -3992.3736     -2253.6445      13593.236    
    989500   592.4393      -4068.3473      0             -3990.0072      1486.5038      13553.526    
    989600   641.7052      -4069.6354      0             -3984.7807      985.50447      13557.11     
    989700   629.50013     -4067.3338      0             -3984.093      -2390.8581      13606.735    
    989800   588.7563      -4067.5638      0             -3989.7108      595.59309      13579.615    
    989900   593.93089     -4070.8108      0             -3992.2735      1297.2053      13551.917    
    990000   590.84088     -4071.4925      0             -3993.3637      27.086586      13573.244    
    990100   586.50385     -4070.249       0             -3992.6938     -534.58521      13594.996    
    990200   623.05032     -4071.3048      0             -3988.9169      918.83962      13567.022    
    990300   600.86004     -4067.7393      0             -3988.2857      621.97006      13578.735    
    990400   593.4349      -4069.5906      0             -3991.1189     -1549.2103      13586.773    
    990500   580.17628     -4072.701       0             -3995.9825      2764.5239      13510.538    
    990600   565.47725     -4070.7128      0             -3995.938      -71.130768      13546.611    
    990700   584.67705     -4070.8934      0             -3993.5797      443.55386      13558.081    
    990800   581.71729     -4068.1765      0             -3991.2542      742.5951       13559.358    
    990900   597.93351     -4069.6565      0             -3990.5899     -1544.1313      13578.491    
    991000   611.02694     -4071.8304      0             -3991.0324      1600.9361      13537.636    
    991100   596.40749     -4071.5557      0             -3992.6908      348.55262      13560.261    
    991200   584.99636     -4072.5121      0             -3995.1562     -2361.7891      13581.586    
    991300   583.47684     -4075.3224      0             -3998.1674      3995.9011      13506.936    
    991400   593.43972     -4075.8854      0             -3997.413      -2026.6695      13564.45     
    991500   583.07708     -4069.3366      0             -3992.2345      1270.8225      13562.636    
    991600   614.57841     -4071.0046      0             -3989.737       88.840352      13568.255    
    991700   618.74647     -4071.3863      0             -3989.5675     -2106.4215      13608.022    
    991800   613.1162      -4072.3954      0             -3991.3211      737.50905      13558.885    
    991900   581.53587     -4073.1719      0             -3996.2735      1997.5439      13532.919    
    992000   593.55999     -4074.3472      0             -3995.8589     -3320.1115      13593.499    
    992100   588.00874     -4071.6232      0             -3993.869       3657.2735      13533.268    
    992200   593.63472     -4070.3548      0             -3991.8567     -2049.8259      13589.064    
    992300   588.82406     -4069.1175      0             -3991.2555     -757.42814      13567.82     
    992400   610.54196     -4072.1337      0             -3991.3998      3798.7704      13521.079    
    992500   584.91106     -4071.0703      0             -3993.7257     -5538.3862      13633.581    
    992600   574.39687     -4073.4843      0             -3997.53        3403.4249      13520.647    
    992700   592.39        -4075.5363      0             -3997.2027      1860.9617      13524.468    
    992800   580.40745     -4069.0919      0             -3992.3428     -4127.3366      13609.94     
    992900   620.93639     -4072.3165      0             -3990.2081      4482.6643      13504.756    
    993000   610.00259     -4072.7011      0             -3992.0386     -1828.5901      13579.56     
    993100   593.88673     -4072.9323      0             -3994.4008     -3004.916       13593.841    
    993200   608.16647     -4074.1759      0             -3993.7562      4298.0498      13499.716    
    993300   619.3302      -4071.3145      0             -3989.4186     -4268.1375      13612.539    
    993400   623.79822     -4069.1513      0             -3986.6645     -784.67121      13574.067    
    993500   618.94278     -4070.3572      0             -3988.5124      3743.2361      13515.4      
    993600   587.45729     -4070.116       0             -3992.4347     -3856.3134      13595.837    
    993700   596.87174     -4071.2253      0             -3992.299       1658.3735      13526.97     
    993800   581.8525      -4069.3694      0             -3992.4292      2633.7005      13536.75     
    993900   598.45148     -4070.6672      0             -3991.5321     -4270.5384      13615.529    
    994000   638.5266      -4072.7409      0             -3988.3065      3364.8343      13522.941    
    994100   607.87501     -4067.9257      0             -3987.5445     -312.48537      13578.714    
    994200   614.78732     -4073.0547      0             -3991.7594     -3219.9139      13600.339    
    994300   583.81936     -4071.6541      0             -3994.4539      3303.0346      13520.672    
    994400   571.42396     -4069.7887      0             -3994.2275     -989.90497      13576.349    
    994500   593.51498     -4070.5242      0             -3992.0419      1124.2324      13555.114    
    994600   611.93224     -4070.2994      0             -3989.3817      664.21233      13565.681    
    994700   587.43127     -4067.3353      0             -3989.6574      113.71237      13586.541    
    994800   577.08854     -4071.876       0             -3995.5658      1003.7847      13559.264    
    994900   581.87688     -4073.1481      0             -3996.2047      849.10842      13552.062    
    995000   586.89286     -4070.4066      0             -3992.7999      556.17543      13561.852    
    995100   609.17709     -4070.1263      0             -3989.5729     -481.45759      13564.668    
    995200   608.73388     -4070.3876      0             -3989.8929     -1145.7158      13554.971    
    995300   592.58187     -4070.2731      0             -3991.9141      40.669398      13561.447    
    995400   581.74716     -4073.0957      0             -3996.1694     -1200.4974      13559.567    
    995500   569.50299     -4075.0679      0             -3999.7607      2723.6824      13506.328    
    995600   592.89387     -4075.5204      0             -3997.1202     -1757.6692      13549.064    
    995700   602.48722     -4073.6272      0             -3993.9584      779.83548      13543.382    
    995800   606.38849     -4071.8953      0             -3991.7106     -1060.2657      13565.64     
    995900   611.9058      -4070.8316      0             -3989.9174     -464.20913      13566.577    
    996000   613.56539     -4070.7155      0             -3989.5818      36.489098      13561.37     
    996100   588.02215     -4071.0875      0             -3993.3315     -900.21759      13576.512    
    996200   593.99537     -4074.0227      0             -3995.4768     -635.55848      13561.98     
    996300   578.17755     -4071.1919      0             -3994.7377      2317.1826      13532.748    
    996400   611.18701     -4070.9033      0             -3990.0841     -1519.0603      13582.495    
    996500   629.20626     -4070.7331      0             -3987.5312     -1182.682       13591.262    
    996600   636.5175      -4073.0979      0             -3988.9292     -158.21322      13560.632    
    996700   595.9175      -4070.625       0             -3991.8249     -162.883        13555.923    
    996800   591.76234     -4071.1739      0             -3992.9233      254.97045      13557.282    
    996900   603.53024     -4072.621       0             -3992.8143     -238.11384      13563.48     
    997000   605.02546     -4070.5194      0             -3990.515       605.00254      13554.257    
    997100   618.34331     -4066.9675      0             -3985.202       941.84447      13573.894    
    997200   629.79946     -4068.5839      0             -3985.3036     -3753.9579      13618.902    
    997300   623.04524     -4072.6321      0             -3990.2448      2322.1253      13530.509    
    997400   611.7061      -4073.2576      0             -3992.3697     -1379.0993      13559.009    
    997500   585.53554     -4070.5051      0             -3993.0779     -1508.1564      13582.407    
    997600   617.32673     -4073.9501      0             -3992.3191      4215.3754      13509.997    
    997700   590.7433      -4069.4988      0             -3991.3829     -3324.7788      13606.434    
    997800   630.32433     -4070.9919      0             -3987.6422     -1066.2501      13576.393    
    997900   630.59695     -4071.281       0             -3987.8952      4321.7923      13512.951    
    998000   566.93059     -4068.0999      0             -3993.1329     -6096.1781      13645.354    
    998100   594.43532     -4072.0913      0             -3993.4872      3439.802       13514.268    
    998200   612.58657     -4074.1154      0             -3993.1111      1729.5719      13510.704    
    998300   578.98228     -4070.9126      0             -3994.352      -5385.9378      13627.644    
    998400   601.00595     -4071.568       0             -3992.0951      4647.8038      13515.479    
    998500   623.42037     -4070.8407      0             -3988.4039     -498.79105      13572.38     
    998600   613.95573     -4068.841       0             -3987.6557     -4559.7496      13628.771    
    998700   591.76624     -4069.7227      0             -3991.4716      6094.6731      13509.595    
    998800   575.69302     -4071.4932      0             -3995.3675     -2903.3127      13589.877    
    998900   613.81771     -4075.1476      0             -3993.9805      144.84116      13559.511    
    999000   620.97151     -4074.0647      0             -3991.9517      461.32233      13543.146    
    999100   601.92315     -4069.3345      0             -3989.7403     -1416.0546      13594.714    
    999200   622.00705     -4068.4184      0             -3986.1685     -307.63601      13573.671    
    999300   637.2949      -4067.2455      0             -3982.974       852.48352      13573.513    
    999400   622.72145     -4070.0591      0             -3987.7147     -4017.8451      13620.52     
    999500   601.95298     -4070.9278      0             -3991.3297      3190.5656      13529.607    
    999600   596.7861      -4072.1183      0             -3993.2034     -1054.2251      13573.003    
    999700   589.74712     -4071.245       0             -3993.2609     -1124.6924      13575.931    
    999800   617.12274     -4072.3889      0             -3990.7848      2777.426       13524.126    
    999900   604.1383      -4067.7063      0             -3987.8192     -2744.0504      13599.452    
   1000000   626.37388     -4070.1504      0             -3987.323       508.76573      13555.169    
Loop time of 726.184 on 1024 procs for 1000000 steps with 1024 atoms

Performance: 118.978 ns/day, 0.202 hours/ns, 1377.062 timesteps/s, 1.410 Matom-step/s
99.0% CPU use with 32 MPI tasks x 32 OpenMP threads

MPI task timing breakdown:
Section |  min time  |  avg time  |  max time  |%varavg| %total
---------------------------------------------------------------
Pair    | 521.73     | 565.87     | 600.01     |  91.5 | 77.92
Neigh   | 2.0164     | 2.8036     | 3.2446     |  21.5 |  0.39
Comm    | 41.205     | 73.636     | 123.4      | 261.4 | 10.14
Output  | 0.73384    | 0.74969    | 0.80764    |   1.4 |  0.10
Modify  | 69.047     | 74.924     | 83.981     |  51.1 | 10.32
Other   |            | 8.202      |            |       |  1.13

Nlocal:             32 ave          39 max          25 min
Histogram: 1 3 3 6 2 6 2 6 0 3
Nghost:        413.531 ave         426 max         401 min
Histogram: 1 1 6 2 5 4 7 3 1 2
Neighs:        664.562 ave         805 max         496 min
Histogram: 2 2 0 4 7 5 3 5 1 3
FullNghs:      1329.12 ave        1617 max        1005 min
Histogram: 1 3 0 6 5 5 2 6 1 3

Total # of neighbors = 42532
Ave neighs/atom = 41.535156
Neighbor list builds = 32503
Dangerous builds = 0
Total wall time: 0:12:14
