LAMMPS (2 Aug 2023 - Update 1)
  using 32 OpenMP thread(s) per MPI task
# some default settings
echo log
units metal
newton on
boundary p p p
atom_style atomic
neighbor 1.0 bin
neigh_modify every 1 delay 5 check yes
thermo 100

variable temperature equal 600
variable nsteps equal 1000000
variable nframes equal 50

# get number of types, not aware of a way to do this with LAMMPS natively

shell ./get_num_types.py inputs/${tag}/masses.in > atom_types_count_${tag}
shell ./get_num_types.py inputs/cantor/masses.in > atom_types_count_${tag}
shell ./get_num_types.py inputs/cantor/masses.in > atom_types_count_cantor
variable ntypes file atom_types_count_${tag}
variable ntypes file atom_types_count_cantor
shell rm atom_types_count_${tag}
shell rm atom_types_count_cantor

if "${tag} == FeAl" then    "variable nswaps equal 25" elif "${tag} == cantor"    "variable nswaps equal 5"
variable nswaps equal 5

# initialize lattice from inputs folder
include inputs/${tag}/lattice.in
include inputs/cantor/lattice.in
lattice fcc 3.0 orient x 1 0 0 orient y 0 1 0 orient z 0 0 1
Lattice spacing in x,y,z = 3 3 3
region box block 0 7 0 7 0 7
create_box ${ntypes} box
create_box 5 box
Created orthogonal box = (0 0 0) to (21 21 21)
  2 by 4 by 4 MPI processor grid
create_atoms 1 box
Created 1372 atoms
  using lattice units in orthogonal box = (0 0 0) to (21 21 21)
  create_atoms CPU = 0.003 seconds

# initialize some more properties from input folder
include inputs/${tag}/masses.in
include inputs/cantor/masses.in
mass 1 58.933
mass 2 58.693
mass 3 51.996
mass 4 55.845
mass 5 54.938
include inputs/${tag}/potential.in
include inputs/cantor/potential.in
pair_style meam
pair_coeff * * library_cantor.meam Co Ni Cr Fe Mn CoNiCrFeMn.meam Co Ni Cr Fe Mn
include inputs/${tag}/composition.in
include inputs/cantor/composition.in
set type 1 type/ratio 2 0.20 123456
Setting atom values ...
  274 settings made for type/ratio
set type 1 type/ratio 3 0.25 789012
Setting atom values ...
  274 settings made for type/ratio
set type 1 type/ratio 4 0.333333333333 345678
Setting atom values ...
  274 settings made for type/ratio
set type 1 type/ratio 5 0.50 912345
Setting atom values ...
  275 settings made for type/ratio
set type 1 type/subset 4 1 678912
Setting atom values ...
  1 settings made for type/subset

# relax lattice at 0 K and 0 bar
min_style cg
min_modify dmax 1.0e-2 line quadratic
fix min all box/relax iso 0.0 vmax 0.01
minimize 0.0 1.0e-4 10000 10000
Switching to 'neigh_modify every 1 delay 0 check yes' setting during minimization
Neighbor list info ...
  update: every = 1 steps, delay = 0 steps, check = yes
  max neighbors/atom: 2000, page size: 100000
  master list distance cutoff = 5.5
  ghost atom cutoff = 5.5
  binsize = 2.75, bins = 8 8 8
  2 neighbor lists, perpetual/occasional/extra = 2 0 0
  (1) pair meam, perpetual
      attributes: full, newton on
      pair build: full/bin/atomonly
      stencil: full/bin/3d
      bin: standard
  (2) pair meam, perpetual, half/full from (1)
      attributes: half, newton on
      pair build: halffull/newton
      stencil: none
      bin: none
WARNING: Energy due to 1 extra global DOFs will be included in minimizer energies
 (src/min.cpp:225)
Per MPI rank memory allocation (min/avg/max) = 49.12 | 49.13 | 49.14 Mbytes
   Step          Temp          E_pair         E_mol          TotEng         Press          Volume    
         0   0             -1140.9995      0             -1140.9995      3524351.7      9261         
       100   0             -5552.6388      0             -5552.6388      40.588799      15941.496    
       200   0             -5552.6942      0             -5552.6942      21.255623      15942.303    
       300   0             -5552.6991      0             -5552.6991     -4.3488259      15942.474    
       400   0             -5552.7         0             -5552.7        -0.38073257     15942.292    
       500   0             -5552.7003      0             -5552.7003     -3.4459593      15942.278    
       600   0             -5552.7004      0             -5552.7004      0.41308888     15942.228    
       700   0             -5552.7004      0             -5552.7004      0.64516846     15942.199    
       800   0             -5552.7004      0             -5552.7004     -3.0898567      15942.228    
       900   0             -5552.7004      0             -5552.7004     -2.9798895      15942.219    
      1000   0             -5552.7004      0             -5552.7004      0.044877071    15942.188    
      1060   0             -5552.7005      0             -5552.7005      0.00081410174  15942.187    
Loop time of 2.50993 on 1024 procs for 1060 steps with 1372 atoms

98.5% CPU use with 32 MPI tasks x 32 OpenMP threads

Minimization stats:
  Stopping criterion = force tolerance
  Energy initial, next-to-last, final = 
     -1140.99950421419  -5552.70045008832  -5552.70045008833
  Force two-norm initial, final = 61115.078 9.8269774e-05
  Force max component initial, final = 61115.028 3.1592191e-05
  Final line search alpha, max atom move = 1 3.1592191e-05
  Iterations, force evaluations = 1060 2082

MPI task timing breakdown:
Section |  min time  |  avg time  |  max time  |%varavg| %total
---------------------------------------------------------------
Pair    | 2.1099     | 2.1994     | 2.3239     |   3.8 | 87.63
Neigh   | 0.0049706  | 0.0057748  | 0.0071401  |   0.7 |  0.23
Comm    | 0.061984   | 0.17145    | 0.27257    |  14.1 |  6.83
Output  | 0.00057818 | 0.00058432 | 0.00064278 |   0.0 |  0.02
Modify  | 0          | 0          | 0          |   0.0 |  0.00
Other   |            | 0.1328     |            |       |  5.29

Nlocal:         42.875 ave          55 max          36 min
Histogram: 2 7 8 5 1 1 4 3 0 1
Nghost:        657.125 ave         664 max         645 min
Histogram: 1 0 3 4 1 1 5 8 7 2
Neighs:        1160.28 ave        1523 max         994 min
Histogram: 7 7 4 3 2 4 3 1 0 1
FullNghs:      2320.56 ave        2974 max        1949 min
Histogram: 2 7 8 5 1 1 4 3 0 1

Total # of neighbors = 74258
Ave neighs/atom = 54.123907
Neighbor list builds = 45
Dangerous builds = 0
unfix min

# nvt equilibration
reset_timestep 0
# fix thermostat all langevin ${temperature} ${temperature} 1.0 123456 gjf vhalf
# fix nve_fix all nve
fix thermo_baro_stat all npt temp ${temperature} ${temperature} $(100.0 * dt) iso 1.0 1.0 $(1000.0 * dt)
fix thermo_baro_stat all npt temp 600 ${temperature} $(100.0 * dt) iso 1.0 1.0 $(1000.0 * dt)
fix thermo_baro_stat all npt temp 600 600 $(100.0 * dt) iso 1.0 1.0 $(1000.0 * dt)
fix thermo_baro_stat all npt temp 600 600 0.10000000000000000555 iso 1.0 1.0 $(1000.0 * dt)
fix thermo_baro_stat all npt temp 600 600 0.10000000000000000555 iso 1.0 1.0 1
fix recenter_fix all recenter INIT INIT INIT
dump equilibration all atom 1000 mc_data/${tag}/equil.dump
dump equilibration all atom 1000 mc_data/cantor/equil.dump
run 10000
Per MPI rank memory allocation (min/avg/max) = 47.98 | 47.99 | 48 Mbytes
   Step          Temp          E_pair         E_mol          TotEng         Press          Volume    
         0   0             -5552.7005      0             -5552.7005      0.00081410174  15942.187    
       100   2.7024997e-08 -5552.7005      0             -5552.7005      1.8790306      15942.169    
       200   5.8709408e-08 -5552.7005      0             -5552.7005      0.38243906     15942.183    
       300   5.5320632e-08 -5552.7005      0             -5552.7005      1.2607699      15942.175    
       400   6.0373402e-08 -5552.7005      0             -5552.7005      1.1429791      15942.176    
       500   7.1308744e-08 -5552.7005      0             -5552.7005      0.4991142      15942.182    
       600   6.0841638e-08 -5552.7005      0             -5552.7005      1.7778746      15942.171    
       700   1.2507094e-07 -5552.7005      0             -5552.7005      0.096831087    15942.186    
       800   2.8572772e-07 -5552.7005      0             -5552.7005      1.8890776      15942.169    
       900   3.7992137e-07 -5552.7005      0             -5552.7004      0.32471257     15942.183    
      1000   3.2056732e-07 -5552.7005      0             -5552.7004      1.3875561      15942.173    
      1100   3.0609361e-07 -5552.7004      0             -5552.7004      1.0361107      15942.176    
      1200   6.1311867e-07 -5552.7004      0             -5552.7004      0.49791549     15942.182    
      1300   1.1847406e-06 -5552.7004      0             -5552.7004      1.855868       15942.17     
      1400   1.7858366e-06 -5552.7004      0             -5552.7004     -0.22351775     15942.189    
      1500   2.3682041e-06 -5552.7004      0             -5552.7004      2.2364327      15942.166    
      1600   2.8670844e-06 -5552.7004      0             -5552.7004     -0.13839436     15942.188    
      1700   3.064966e-06  -5552.7004      0             -5552.7004      1.6668537      15942.172    
      1800   4.5324784e-06 -5552.7004      0             -5552.7004      0.98434539     15942.178    
      1900   9.8180044e-06 -5552.7004      0             -5552.7004      0.34040869     15942.185    
      2000   1.708226e-05  -5552.7004      0             -5552.7004      2.416197       15942.164    
      2100   2.0641108e-05 -5552.7004      0             -5552.7004     -0.52588213     15942.19     
      2200   2.1451444e-05 -5552.7004      0             -5552.7004      2.8090333      15942.159    
      2300   3.3035223e-05 -5552.7004      0             -5552.7004     -0.15868954     15942.186    
      2400   5.5461722e-05 -5552.7004      0             -5552.7004      1.7291632      15942.171    
      2500   8.0106585e-05 -5552.7004      0             -5552.7004      0.9374162      15942.177    
      2600   0.00014996153 -5552.7004      0             -5552.7004      0.24423587     15942.187    
      2700   0.00025146454 -5552.7004      0             -5552.7004      1.5220588      15942.174    
      2800   0.00024808832 -5552.7004      0             -5552.7003     -0.46998001     15942.197    
      2900   0.00027716072 -5552.7004      0             -5552.7003      1.2567863      15942.184    
      3000   0.00056328004 -5552.7003      0             -5552.7002     -0.46057898     15942.192    
      3100   0.00096168242 -5552.7003      0             -5552.7001      1.6150174      15942.166    
      3200   0.0016646447  -5552.7003      0             -5552.7         0.61280312     15942.163    
      3300   0.0028992182  -5552.7001      0             -5552.6996      3.2138703      15942.143    
      3400   0.0031112332  -5552.6997      0             -5552.6992      0.69220608     15942.176    
      3500   0.0027109651  -5552.6992      0             -5552.6988      5.8873165      15942.158    
      3600   0.0059918503  -5552.6992      0             -5552.6982      1.5456211      15942.263    
      3700   0.0128808     -5552.6991      0             -5552.6968      2.4076154      15942.301    
      3800   0.021502083   -5552.6981      0             -5552.6942      2.9330577      15942.325    
      3900   0.032700141   -5552.696       0             -5552.6902     -4.8790155      15942.31     
      4000   0.039726602   -5552.6916      0             -5552.6846      10.653475      15942.095    
      4100   0.034650731   -5552.6851      0             -5552.679      -22.961005      15942.373    
      4200   0.068857391   -5552.6841      0             -5552.6719      11.068126      15942.041    
      4300   0.18405835    -5552.6858      0             -5552.6532     -28.514882      15942.518    
      4400   0.31106057    -5552.6697      0             -5552.6146     -1.2171892      15942.307    
      4500   0.40242354    -5552.6306      0             -5552.5592     -1.9857038      15942.505    
      4600   0.47915487    -5552.5758      0             -5552.4909     -42.132658      15942.779    
      4700   0.58507408    -5552.5141      0             -5552.4104      32.847495      15942.086    
      4800   1.112745      -5552.4826      0             -5552.2854     -91.171552      15943.116    
      4900   2.383741      -5552.4398      0             -5552.0173      71.774477      15941.854    
      5000   4.3555996     -5552.2629      0             -5551.4911     -97.368178      15944.832    
      5100   6.0172936     -5551.7188      0             -5550.6525      54.000644      15944.633    
      5200   6.1362832     -5550.7655      0             -5549.6781      9.2093673      15946.894    
      5300   8.444023      -5550.085       0             -5548.5886     -124.46351      15949.827    
      5400   19.800629     -5550.037       0             -5546.528       145.75322      15947.103    
      5500   38.351884     -5548.6653      0             -5541.8687      132.01763      15954.157    
      5600   51.96531      -5543.9497      0             -5534.7406     -256.91968      15965.754    
      5700   76.033657     -5538.3358      0             -5524.8614      489.12354      15970.599    
      5800   101.87014     -5529.1017      0             -5511.0487     -392.83009      15999.139    
      5900   139.31647     -5517.7074      0             -5493.0184      654.06113      16017.754    
      6000   251.13988     -5510.3941      0             -5465.8882     -259.64671      16063.58     
      6100   423.67116     -5497.6327      0             -5422.5515      365.71957      16104.779    
      6200   475.90282     -5457.746       0             -5373.4086      527.65504      16197.454    
      6300   598.95684     -5431.0449      0             -5324.9004     -2370.6923      16303.965    
      6400   689.37321     -5411.8478      0             -5289.6801      2294.9854      16323.529    
      6500   664.40954     -5402.2457      0             -5284.5019     -4959.1214      16430.659    
      6600   671.73744     -5422.0076      0             -5302.9652      3134.9898      16304.558    
      6700   592.85645     -5441.1151      0             -5336.0517     -1446.9747      16296.178    
      6800   584.849       -5466.6718      0             -5363.0274     -389.78165      16243.774    
      6900   500.01059     -5465.7846      0             -5377.1749      5044.5993      16172.711    
      7000   532.23079     -5459.6702      0             -5365.3506     -5352.1202      16285.862    
      7100   610.88969     -5442.7186      0             -5334.4594      5542.1991      16242.932    
      7200   672.61674     -5429.4158      0             -5310.2176     -5309.1188      16391.081    
      7300   687.51158     -5431.533       0             -5309.6951      445.16355      16332.891    
      7400   617.3033      -5446.9224      0             -5337.5266      17.37204       16290.678    
      7500   542.85112     -5458.8855      0             -5362.6837     -1771.3002      16267.244    
      7600   524.38138     -5459.7977      0             -5366.8691      4762.8408      16208.326    
      7700   568.19732     -5451.4054      0             -5350.712      -2756.1894      16305.533    
      7800   627.37399     -5438.2533      0             -5327.0728      3152.3287      16290.582    
      7900   658.9741      -5432.6182      0             -5315.8377     -3736.6411      16366.615    
      8000   632.16876     -5439.8404      0             -5327.8102      1722.1745      16297.628    
      8100   564.06393     -5448.052       0             -5348.0911     -4.4459485      16284.561    
      8200   546.57039     -5456.5903      0             -5359.7295      1401.1139      16251.129    
      8300   550.38278     -5453.5105      0             -5355.974       1507.3259      16263.519    
      8400   592.93012     -5445.7009      0             -5340.6244     -1024.384       16310.271    
      8500   649.36815     -5441.2097      0             -5326.1315      1062.8119      16306.774    
      8600   628.3763      -5435.5215      0             -5324.1634     -1414.8844      16347.248    
      8700   632.74567     -5447.9396      0             -5335.8072     -239.29173      16296.86     
      8800   552.15686     -5448.8431      0             -5350.9923     -451.62315      16288.1      
      8900   562.31838     -5455.4746      0             -5355.823       1502.9625      16261.833    
      9000   564.62364     -5450.3567      0             -5350.2966      1506.5543      16276.629    
      9100   618.16976     -5446.0676      0             -5336.5182     -2192.7166      16314.822    
      9200   647.14491     -5441.2448      0             -5326.5606      308.59848      16315.684    
      9300   611.99361     -5438.0996      0             -5329.6448     -325.20568      16336.495    
      9400   583.72297     -5443.9532      0             -5340.5083      1714.2627      16297.298    
      9500   582.45171     -5454.9175      0             -5351.6979     -981.83326      16281.779    
      9600   555.14613     -5453.4776      0             -5355.0971      1057.2127      16273.128    
      9700   590.52723     -5450.686       0             -5346.0353      287.59495      16287.775    
      9800   624.43033     -5442.372       0             -5331.7132     -1388.8763      16323.533    
      9900   647.55879     -5440.2856      0             -5325.5281     -233.46381      16330.65     
     10000   629.92194     -5445.2506      0             -5333.6186      1850.5242      16301.498    
Loop time of 11.9962 on 1024 procs for 10000 steps with 1372 atoms

Performance: 72.023 ns/day, 0.333 hours/ns, 833.598 timesteps/s, 1.144 Matom-step/s
98.6% CPU use with 32 MPI tasks x 32 OpenMP threads

MPI task timing breakdown:
Section |  min time  |  avg time  |  max time  |%varavg| %total
---------------------------------------------------------------
Pair    | 10.083     | 10.492     | 10.965     |   7.0 | 87.46
Neigh   | 0.011578   | 0.012598   | 0.013235   |   0.3 |  0.11
Comm    | 0.48188    | 0.90241    | 1.3519     |  24.3 |  7.52
Output  | 0.0052943  | 0.0060068  | 0.0072178  |   0.5 |  0.05
Modify  | 0.42182    | 0.50797    | 0.61931    |   9.4 |  4.23
Other   |            | 0.07533    |            |       |  0.63

Nlocal:         42.875 ave          52 max          36 min
Histogram: 3 2 4 7 3 7 3 1 1 1
Nghost:        581.688 ave         592 max         570 min
Histogram: 4 2 1 2 5 4 3 5 3 3
Neighs:        1198.94 ave        1443 max        1017 min
Histogram: 4 0 7 6 4 4 2 1 3 1
FullNghs:      2397.88 ave        2905 max        2016 min
Histogram: 3 2 4 7 4 6 2 2 1 1

Total # of neighbors = 76732
Ave neighs/atom = 55.927114
Neighbor list builds = 98
Dangerous builds = 0
undump equilibration

# run mc-md routine
reset_timestep 0

# do a swap_fix for every atom-atom pair

label fixing_outer_loop
variable i loop ${ntypes}
variable i loop 5

   variable jstart equal ${i}+1
   variable jstart equal 1+1
   if "${jstart} > ${ntypes}" then "jump SELF fixing_loop_end"
   label fixing_inner_loop
   variable j loop ${jstart} ${ntypes}
   variable j loop 2 ${ntypes}
   variable j loop 2 5

      fix swap_fix${i}${j} all atom/swap 1000 ${nswaps} 123456 ${temperature} types ${i} ${j}
      fix swap_fix1${j} all atom/swap 1000 ${nswaps} 123456 ${temperature} types ${i} ${j}
      fix swap_fix12 all atom/swap 1000 ${nswaps} 123456 ${temperature} types ${i} ${j}
      fix swap_fix12 all atom/swap 1000 5 123456 ${temperature} types ${i} ${j}
      fix swap_fix12 all atom/swap 1000 5 123456 600 types ${i} ${j}
      fix swap_fix12 all atom/swap 1000 5 123456 600 types 1 ${j}
      fix swap_fix12 all atom/swap 1000 5 123456 600 types 1 2

      next j
      jump SELF fixing_inner_loop
   variable j loop ${jstart} ${ntypes}
   variable j loop 2 ${ntypes}
   variable j loop 2 5

      fix swap_fix${i}${j} all atom/swap 1000 ${nswaps} 123456 ${temperature} types ${i} ${j}
      fix swap_fix1${j} all atom/swap 1000 ${nswaps} 123456 ${temperature} types ${i} ${j}
      fix swap_fix13 all atom/swap 1000 ${nswaps} 123456 ${temperature} types ${i} ${j}
      fix swap_fix13 all atom/swap 1000 5 123456 ${temperature} types ${i} ${j}
      fix swap_fix13 all atom/swap 1000 5 123456 600 types ${i} ${j}
      fix swap_fix13 all atom/swap 1000 5 123456 600 types 1 ${j}
      fix swap_fix13 all atom/swap 1000 5 123456 600 types 1 3

      next j
      jump SELF fixing_inner_loop
   variable j loop ${jstart} ${ntypes}
   variable j loop 2 ${ntypes}
   variable j loop 2 5

      fix swap_fix${i}${j} all atom/swap 1000 ${nswaps} 123456 ${temperature} types ${i} ${j}
      fix swap_fix1${j} all atom/swap 1000 ${nswaps} 123456 ${temperature} types ${i} ${j}
      fix swap_fix14 all atom/swap 1000 ${nswaps} 123456 ${temperature} types ${i} ${j}
      fix swap_fix14 all atom/swap 1000 5 123456 ${temperature} types ${i} ${j}
      fix swap_fix14 all atom/swap 1000 5 123456 600 types ${i} ${j}
      fix swap_fix14 all atom/swap 1000 5 123456 600 types 1 ${j}
      fix swap_fix14 all atom/swap 1000 5 123456 600 types 1 4

      next j
      jump SELF fixing_inner_loop
   variable j loop ${jstart} ${ntypes}
   variable j loop 2 ${ntypes}
   variable j loop 2 5

      fix swap_fix${i}${j} all atom/swap 1000 ${nswaps} 123456 ${temperature} types ${i} ${j}
      fix swap_fix1${j} all atom/swap 1000 ${nswaps} 123456 ${temperature} types ${i} ${j}
      fix swap_fix15 all atom/swap 1000 ${nswaps} 123456 ${temperature} types ${i} ${j}
      fix swap_fix15 all atom/swap 1000 5 123456 ${temperature} types ${i} ${j}
      fix swap_fix15 all atom/swap 1000 5 123456 600 types ${i} ${j}
      fix swap_fix15 all atom/swap 1000 5 123456 600 types 1 ${j}
      fix swap_fix15 all atom/swap 1000 5 123456 600 types 1 5

      next j
      jump SELF fixing_inner_loop

   next i
   jump SELF fixing_outer_loop
variable i loop ${ntypes}
variable i loop 5

   variable jstart equal ${i}+1
   variable jstart equal 2+1
   if "${jstart} > ${ntypes}" then "jump SELF fixing_loop_end"
   label fixing_inner_loop
   variable j loop ${jstart} ${ntypes}
   variable j loop 3 ${ntypes}
   variable j loop 3 5

      fix swap_fix${i}${j} all atom/swap 1000 ${nswaps} 123456 ${temperature} types ${i} ${j}
      fix swap_fix2${j} all atom/swap 1000 ${nswaps} 123456 ${temperature} types ${i} ${j}
      fix swap_fix23 all atom/swap 1000 ${nswaps} 123456 ${temperature} types ${i} ${j}
      fix swap_fix23 all atom/swap 1000 5 123456 ${temperature} types ${i} ${j}
      fix swap_fix23 all atom/swap 1000 5 123456 600 types ${i} ${j}
      fix swap_fix23 all atom/swap 1000 5 123456 600 types 2 ${j}
      fix swap_fix23 all atom/swap 1000 5 123456 600 types 2 3

      next j
      jump SELF fixing_inner_loop
   variable j loop ${jstart} ${ntypes}
   variable j loop 3 ${ntypes}
   variable j loop 3 5

      fix swap_fix${i}${j} all atom/swap 1000 ${nswaps} 123456 ${temperature} types ${i} ${j}
      fix swap_fix2${j} all atom/swap 1000 ${nswaps} 123456 ${temperature} types ${i} ${j}
      fix swap_fix24 all atom/swap 1000 ${nswaps} 123456 ${temperature} types ${i} ${j}
      fix swap_fix24 all atom/swap 1000 5 123456 ${temperature} types ${i} ${j}
      fix swap_fix24 all atom/swap 1000 5 123456 600 types ${i} ${j}
      fix swap_fix24 all atom/swap 1000 5 123456 600 types 2 ${j}
      fix swap_fix24 all atom/swap 1000 5 123456 600 types 2 4

      next j
      jump SELF fixing_inner_loop
   variable j loop ${jstart} ${ntypes}
   variable j loop 3 ${ntypes}
   variable j loop 3 5

      fix swap_fix${i}${j} all atom/swap 1000 ${nswaps} 123456 ${temperature} types ${i} ${j}
      fix swap_fix2${j} all atom/swap 1000 ${nswaps} 123456 ${temperature} types ${i} ${j}
      fix swap_fix25 all atom/swap 1000 ${nswaps} 123456 ${temperature} types ${i} ${j}
      fix swap_fix25 all atom/swap 1000 5 123456 ${temperature} types ${i} ${j}
      fix swap_fix25 all atom/swap 1000 5 123456 600 types ${i} ${j}
      fix swap_fix25 all atom/swap 1000 5 123456 600 types 2 ${j}
      fix swap_fix25 all atom/swap 1000 5 123456 600 types 2 5

      next j
      jump SELF fixing_inner_loop

   next i
   jump SELF fixing_outer_loop
variable i loop ${ntypes}
variable i loop 5

   variable jstart equal ${i}+1
   variable jstart equal 3+1
   if "${jstart} > ${ntypes}" then "jump SELF fixing_loop_end"
   label fixing_inner_loop
   variable j loop ${jstart} ${ntypes}
   variable j loop 4 ${ntypes}
   variable j loop 4 5

      fix swap_fix${i}${j} all atom/swap 1000 ${nswaps} 123456 ${temperature} types ${i} ${j}
      fix swap_fix3${j} all atom/swap 1000 ${nswaps} 123456 ${temperature} types ${i} ${j}
      fix swap_fix34 all atom/swap 1000 ${nswaps} 123456 ${temperature} types ${i} ${j}
      fix swap_fix34 all atom/swap 1000 5 123456 ${temperature} types ${i} ${j}
      fix swap_fix34 all atom/swap 1000 5 123456 600 types ${i} ${j}
      fix swap_fix34 all atom/swap 1000 5 123456 600 types 3 ${j}
      fix swap_fix34 all atom/swap 1000 5 123456 600 types 3 4

      next j
      jump SELF fixing_inner_loop
   variable j loop ${jstart} ${ntypes}
   variable j loop 4 ${ntypes}
   variable j loop 4 5

      fix swap_fix${i}${j} all atom/swap 1000 ${nswaps} 123456 ${temperature} types ${i} ${j}
      fix swap_fix3${j} all atom/swap 1000 ${nswaps} 123456 ${temperature} types ${i} ${j}
      fix swap_fix35 all atom/swap 1000 ${nswaps} 123456 ${temperature} types ${i} ${j}
      fix swap_fix35 all atom/swap 1000 5 123456 ${temperature} types ${i} ${j}
      fix swap_fix35 all atom/swap 1000 5 123456 600 types ${i} ${j}
      fix swap_fix35 all atom/swap 1000 5 123456 600 types 3 ${j}
      fix swap_fix35 all atom/swap 1000 5 123456 600 types 3 5

      next j
      jump SELF fixing_inner_loop

   next i
   jump SELF fixing_outer_loop
variable i loop ${ntypes}
variable i loop 5

   variable jstart equal ${i}+1
   variable jstart equal 4+1
   if "${jstart} > ${ntypes}" then "jump SELF fixing_loop_end"
   label fixing_inner_loop
   variable j loop ${jstart} ${ntypes}
   variable j loop 5 ${ntypes}
   variable j loop 5 5

      fix swap_fix${i}${j} all atom/swap 1000 ${nswaps} 123456 ${temperature} types ${i} ${j}
      fix swap_fix4${j} all atom/swap 1000 ${nswaps} 123456 ${temperature} types ${i} ${j}
      fix swap_fix45 all atom/swap 1000 ${nswaps} 123456 ${temperature} types ${i} ${j}
      fix swap_fix45 all atom/swap 1000 5 123456 ${temperature} types ${i} ${j}
      fix swap_fix45 all atom/swap 1000 5 123456 600 types ${i} ${j}
      fix swap_fix45 all atom/swap 1000 5 123456 600 types 4 ${j}
      fix swap_fix45 all atom/swap 1000 5 123456 600 types 4 5

      next j
      jump SELF fixing_inner_loop

   next i
   jump SELF fixing_outer_loop
variable i loop ${ntypes}
variable i loop 5

   variable jstart equal ${i}+1
   variable jstart equal 5+1
   if "${jstart} > ${ntypes}" then "jump SELF fixing_loop_end"
jump SELF fixing_loop_end

# dump and write restart files

variable r equal logfreq3(10,${nframes},${nsteps})
variable r equal logfreq3(10,50,${nsteps})
variable r equal logfreq3(10,50,1000000)

dump mc_dump all atom 1 mc_data/${tag}/mc.dump
dump mc_dump all atom 1 mc_data/cantor/mc.dump
dump_modify mc_dump every v_r
restart v_r mc_data/${tag}/mc.*.restart
restart v_r mc_data/cantor/mc.*.restart
run ${nsteps}
run 1000000
Per MPI rank memory allocation (min/avg/max) = 47.98 | 47.99 | 48 Mbytes
   Step          Temp          E_pair         E_mol          TotEng         Press          Volume    
         0   629.92194     -5445.2506      0             -5333.6186      1850.5242      16301.498    
       100   577.65052     -5450.7391      0             -5348.3704     -2335.6998      16302.955    
       200   556.77796     -5455.0157      0             -5356.346       2259.8202      16257.189    
       300   573.44154     -5452.9046      0             -5351.2818     -241.69619      16283.864    
       400   612.54997     -5446.6168      0             -5338.0633      933.41318      16304.803    
       500   633.80882     -5441.9759      0             -5329.6551     -2282.3038      16340.492    
       600   627.74486     -5443.2471      0             -5332.0008      1621.4346      16304.094    
       700   585.68245     -5446.3229      0             -5342.5308      1056.645       16304.526    
       800   579.8246      -5453.6927      0             -5350.9387     -1321.194       16285.567    
       900   585.34379     -5455.1484      0             -5351.4164      1293.7886      16264.464    
      1000   593.2668      -5450.2109      0             -5345.0748     -980.51784      16305.361    
      1100   595.81789     -5443.3555      0             -5337.7672      1847.2452      16296.037    
      1200   627.96177     -5444.0176      0             -5332.733      -1797.9595      16330.848    
      1300   614.78341     -5445.4757      0             -5336.5265      866.51963      16307.093    
      1400   587.24873     -5449.5524      0             -5345.4827      370.27689      16297.732    
      1500   577.14813     -5454.212       0             -5351.9323     -1058.1684      16293.462    
      1600   576.69307     -5453.8341      0             -5351.635       1579.4715      16270.03     
      1700   591.44516     -5448.885       0             -5344.0716     -1507.435       16317.816    
      1800   647.88391     -5448.9747      0             -5334.1595     -474.18104      16305.192    
      1900   625.41341     -5444.7746      0             -5333.9416     -583.35103      16324.16     
      2000   583.49716     -5445.5497      0             -5342.1448      446.11344      16314.681    
      2100   588.36543     -5455.1215      0             -5350.8539      1181.8126      16266.869    
      2200   565.07681     -5453.5716      0             -5353.4311     -1661.3932      16308.897    
      2300   577.0032      -5450.1615      0             -5347.9075      2454.5001      16270.251    
      2400   593.74522     -5444.9625      0             -5339.7415      399.53594      16321.119    
      2500   630.69131     -5447.4668      0             -5335.6984     -1758.3498      16324.138    
      2600   595.10144     -5445.3585      0             -5339.8972      4109.24        16269.709    
      2700   598.22463     -5453.2528      0             -5347.238      -6115.6365      16349.173    
      2800   596.40989     -5457.7762      0             -5352.0831      7352.4448      16208.899    
      2900   580.00397     -5454.3826      0             -5351.5968     -8091.8964      16363.021    
      3000   604.67098     -5449.8981      0             -5342.7409      5984.8542      16241.783    
      3100   608.4205      -5444.2556      0             -5336.434      -231.68239      16323.216    
      3200   618.17032     -5447.1131      0             -5337.5637     -6656.7724      16372.102    
      3300   594.66113     -5449.0108      0             -5343.6275      10761.935      16198.238    
      3400   556.86479     -5450.0963      0             -5351.4111     -10563.251      16400.969    
      3500   580.3554      -5453.7585      0             -5350.9105      9980.1998      16190.233    
      3600   597.80945     -5450.6289      0             -5344.6877     -5712.5574      16352.366    
      3700   629.112       -5449.4631      0             -5337.9746      1703.6485      16297.985    
      3800   614.36949     -5445.3408      0             -5336.4649      964.36588      16304.872    
      3900   604.32823     -5449.2725      0             -5342.1761     -3206.2793      16337.628    
      4000   590.08649     -5453.1869      0             -5348.6144      2875.3931      16263.211    
      4100   584.31785     -5455.7252      0             -5352.1749     -1876.7925      16308.791    
      4200   594.42151     -5454.748       0             -5349.4072      1460.0574      16283.576    
      4300   608.20633     -5451.0488      0             -5343.2652     -2068.7583      16318.865    
      4400   620.30819     -5448.5383      0             -5338.61        476.18256      16313.029    
      4500   612.50775     -5447.8151      0             -5339.2691     -473.00758      16318.392    
      4600   591.79563     -5450.1406      0             -5345.2651      1466.652       16293.963    
      4700   587.58433     -5454.9587      0             -5350.8296     -1972.5506      16303.024    
      4800   586.56789     -5455.3699      0             -5351.4209      479.29022      16286.157    
      4900   596.59934     -5451.5762      0             -5345.8494      258.36928      16307.331    
      5000   609.41611     -5446.9171      0             -5338.919       141.68959      16313.425    
      5100   631.06588     -5449.5135      0             -5337.6788      676.27168      16307.075    
      5200   606.69111     -5452.3734      0             -5344.8582     -2317.66        16321.073    
      5300   601.89692     -5457.7387      0             -5351.0732      1426.4013      16270.383    
      5400   589.64506     -5455.8629      0             -5351.3686     -631.99373      16299.267    
      5500   577.90085     -5448.6081      0             -5346.195       245.72218      16299.217    
      5600   610.82645     -5448.399       0             -5340.151       485.93947      16302.357    
      5700   613.19127     -5447.5983      0             -5338.9312     -1059.2062      16321.389    
      5800   603.57939     -5449.9056      0             -5342.9419      1595.4049      16292.507    
      5900   591.26718     -5453.2155      0             -5348.4337     -1337.5599      16307.804    
      6000   576.84505     -5453.4906      0             -5351.2646      1594.1913      16276.542    
      6100   583.42505     -5452.9931      0             -5349.6011     -435.74109      16303.981    
      6200   607.02852     -5450.9923      0             -5343.4174      400.93156      16305.417    
      6300   601.64153     -5445.651       0             -5339.0307      912.56881      16312.17     
      6400   622.48508     -5450.0211      0             -5339.707      -2253.6902      16328.782    
      6500   594.49553     -5450.7584      0             -5345.4045      3203.5307      16282.72     
      6600   596.7468      -5457.4579      0             -5351.705      -3233.1501      16307.918    
      6700   586.48893     -5456.5634      0             -5352.6283      645.9151       16282.643    
      6800   596.88267     -5452.8034      0             -5347.0265      132.33404      16303.147    
      6900   612.82886     -5448.5337      0             -5339.9308     -594.83054      16309.414    
      7000   616.49201     -5446.7422      0             -5337.4902      235.69143      16319.151    
      7100   601.05384     -5448.7209      0             -5342.2048     -347.90645      16315.819    
      7200   590.26348     -5454.8085      0             -5350.2045      691.74107      16282.083    
      7300   573.86804     -5455.5389      0             -5353.8405     -217.43028      16300.111    
      7400   586.42554     -5453.5031      0             -5349.5793      578.92617      16287.264    
      7500   606.34723     -5449.6833      0             -5342.2291      1168.6513      16299.416    
      7600   618.36715     -5447.8285      0             -5338.2442     -2839.6386      16344.179    
      7700   616.5016      -5449.4369      0             -5340.1831      3071.0357      16284.999    
      7800   603.91391     -5453.4773      0             -5346.4543     -2310.4022      16328.801    
      7900   575.71723     -5453.6615      0             -5351.6354      793.25499      16275.608    
      8000   582.75324     -5455.0277      0             -5351.7547      2174.1367      16274.178    
      8100   575.74605     -5449.924       0             -5347.8928     -3009.1119      16337.861    
      8200   602.42788     -5447.6208      0             -5340.8612      4933.7592      16262.572    
      8300   617.38672     -5448.3515      0             -5338.9409     -4440.3936      16361.411    
      8400   593.41763     -5449.4856      0             -5344.3228      3282.9186      16282.89     
      8500   582.75175     -5454.8104      0             -5351.5376     -703.15032      16295.564    
      8600   578.25898     -5455.8176      0             -5353.3411     -815.65013      16303.217    
      8700   584.69745     -5452.1434      0             -5348.5259      4191.24        16270.098    
      8800   615.78379     -5451.2953      0             -5342.1688     -4235.4284      16348.344    
      8900   646.3967      -5453.5265      0             -5338.9749      2748.8742      16280.503    
      9000   590.25873     -5447.9202      0             -5343.3171     -2620.2713      16341.538    
      9100   585.67642     -5453.1272      0             -5349.3362      2397.0972      16283.155    
      9200   583.80882     -5456.6067      0             -5353.1466      108.26357      16291.963    
      9300   580.44915     -5455.3003      0             -5352.4356     -349.68579      16296.454    
      9400   595.8255      -5453.1566      0             -5347.567       2404.9542      16283.949    
      9500   613.76336     -5450.6133      0             -5341.8448     -4022.899       16348.904    
      9600   610.42514     -5448.8286      0             -5340.6517      3992.4349      16276.021    
      9700   607.01548     -5453.223       0             -5345.6504     -3273.0856      16335.261    
      9800   591.46202     -5456.4118      0             -5351.5955      2620.598       16277.465    
      9900   586.77523     -5457.7957      0             -5353.8099     -1867.5778      16303.68     
     10000   600.88186     -5456.678       0             -5350.1923      1318.5103      16283.133    
     10100   596.72357     -5451.1334      0             -5345.3846     -1111.667       16322.833    
     10200   628.96069     -5454.2574      0             -5342.7957      370.80711      16311.449    
     10300   597.78705     -5451.1487      0             -5345.2115     -155.88989      16310.926    
     10400   592.24416     -5454.9322      0             -5349.9772     -1552.5166      16318.685    
     10500   581.61805     -5456.3551      0             -5353.2833      3720.3583      16262.582    
     10600   583.82774     -5456.7969      0             -5353.3334     -2039.671       16317.011    
     10700   609.34952     -5456.4757      0             -5348.4894      9.0139207      16300.564    
     10800   621.56498     -5453.0764      0             -5342.9253     -1185.3863      16323.071    
     10900   617.54514     -5452.4109      0             -5342.9722      1078.9032      16312.88     
     11000   595.55608     -5453.3329      0             -5347.791       376.77056      16301.317    
     11100   595.84036     -5458.3229      0             -5352.7306     -1245.7168      16314.959    
     11200   571.5395      -5456.3737      0             -5355.0879      2804.6556      16276.323    
     11300   593.6379      -5457.0761      0             -5351.8742     -2795.8533      16319.603    
     11400   629.84656     -5457.0179      0             -5345.3992      1405.9408      16294.396    
     11500   610.71771     -5450.5075      0             -5342.2788     -1271.067       16334.114    
     11600   628.31341     -5455.8394      0             -5344.4924     -88.373053      16304.622    
     11700   584.11095     -5454.9544      0             -5351.4408      483.15619      16301.911    
     11800   568.55598     -5456.4024      0             -5355.6454     -1161.7566      16309.273    
     11900   580.45686     -5456.3829      0             -5353.5169      3500.1644      16259.089    
     12000   607.50903     -5454.6722      0             -5347.0121     -4439.2212      16351.269    
     12100   626.63181     -5453.1617      0             -5342.1127      2595.4676      16290.609    
     12200   617.04494     -5453.6024      0             -5344.2524     -1945.4704      16329.79     
     12300   605.05794     -5457.4152      0             -5350.1895      243.89584      16301.898    
     12400   569.33049     -5455.9174      0             -5355.0231      2023.4692      16282.236    
     12500   593.64892     -5459.6018      0             -5354.3979     -3068.2044      16322.183    
     12600   595.15928     -5455.5862      0             -5350.1146      4761.1049      16264.393    
     12700   610.68488     -5453.4796      0             -5345.2567     -3741.5383      16354.113    
     12800   614.60875     -5452.6246      0             -5343.7063      2085.9355      16282.041    
     12900   605.6891      -5454.2329      0             -5346.8954     -1370.2546      16325.739    
     13000   599.06096     -5458.6223      0             -5352.4593     -1662.187       16310.963    
     13100   595.31779     -5461.6113      0             -5356.1117      4066.9534      16251.138    
     13200   587.54372     -5458.3605      0             -5354.2385     -6372.0226      16352.981    
     13300   626.62883     -5458.2521      0             -5347.2037      6237.5685      16251.854    
     13400   610.18515     -5451.7863      0             -5343.652      -4983.0404      16371.406    
     13500   615.65355     -5454.7408      0             -5345.6374      2479.6359      16284.498    
     13600   580.9799      -5454.5778      0             -5351.619       531.71118      16304.47     
     13700   564.43923     -5455.5883      0             -5355.5608     -1814.2149      16318.451    
     13800   597.79193     -5459.89        0             -5353.9519      4614.4455      16252.212    
     13900   584.66027     -5453.4599      0             -5349.849      -5724.1646      16361.1      
     14000   623.06178     -5455.6476      0             -5345.2313      5379.9781      16260.29     
     14100   582.90236     -5449.5368      0             -5346.2374     -3555.4068      16353.517    
     14200   592.4163      -5453.7881      0             -5348.8026      2845.1406      16284.241    
     14300   591.30265     -5457.8621      0             -5353.074      -56.940175      16303.628    
     14400   592.84574     -5460.1831      0             -5355.1215     -2494.2528      16312.88     
     14500   604.28977     -5460.1722      0             -5353.0826      4646.799       16258.653    
     14600   616.19232     -5458.3321      0             -5349.1332     -5610.4645      16350.833    
     14700   621.35724     -5456.2478      0             -5346.1336      4427.0645      16267.591    
     14800   619.65684     -5456.7294      0             -5346.9165     -3584.2853      16347.644    
     14900   610.25169     -5458.5733      0             -5350.4271      496.24616      16290.244    
     15000   573.76307     -5456.1023      0             -5354.4225      2554.7026      16290.45     
     15100   585.43722     -5458.1982      0             -5354.4496     -3935.2198      16341.889    
     15200   605.83762     -5458.2001      0             -5350.8362      5310.5109      16256.027    
     15300   605.07612     -5454.2951      0             -5347.0661     -5136.3381      16364.747    
     15400   624.44254     -5456.8374      0             -5346.1764      4760.9912      16271.051    
     15500   588.18894     -5454.4919      0             -5350.2556     -3629.6122      16340.865    
     15600   584.30334     -5458.1203      0             -5354.5726      2305.3383      16280.634    
     15700   601.62584     -5462.0248      0             -5355.4072      325.63886      16288.795    
     15800   598.39012     -5458.6277      0             -5352.5836     -3130.1426      16325.795    
     15900   604.46656     -5454.9829      0             -5347.862       3286.3004      16281.799    
     16000   599.73626     -5452.2873      0             -5346.0047     -2509.0369      16347.211    
     16100   600.33367     -5455.0789      0             -5348.6904      3709.0159      16281.61     
     16200   596.11628     -5457.7648      0             -5352.1237     -3140.3187      16336.115    
     16300   594.02138     -5460.643       0             -5355.3731      1902.7114      16278.778    
     16400   593.45983     -5459.8759      0             -5354.7055     -1911.2689      16320.847    
     16500   610.37361     -5458.7426      0             -5350.5749     -278.31629      16308.109    
     16600   603.05522     -5454.8596      0             -5347.9888      978.84857      16307.274    
     16700   599.27208     -5454.4763      0             -5348.2759     -985.55451      16336.083    
     16800   625.03773     -5460.5168      0             -5349.7503      462.73816      16297.53     
     16900   603.39264     -5460.2761      0             -5353.3455     -1789.6189      16321.5      
     17000   573.73715     -5457.0956      0             -5355.4204      2249.9542      16292.991    
     17100   578.48273     -5456.3451      0             -5353.8289     -993.20896      16318.053    
     17200   614.03425     -5457.9566      0             -5349.1401      1387.7215      16309.695    
     17300   621.21149     -5457.5053      0             -5347.4169     -1861.2927      16324.541    
     17400   607.61825     -5457.3931      0             -5349.7136      513.00914      16315.177    
     17500   600.23834     -5460.3081      0             -5353.9365     -1631.8476      16321.219    
     17600   590.36489     -5461.4309      0             -5356.809       932.01462      16284.706    
     17700   598.48        -5460.8341      0             -5354.774      -708.28023      16314.054    
     17800   611.52109     -5458.7676      0             -5350.3965     -1102.5625      16320.771    
     17900   602.6554      -5454.2152      0             -5347.4152      1198.663       16304.438    
     18000   608.92559     -5455.8584      0             -5347.9473     -1885.0321      16335.014    
     18100   592.33443     -5456.6125      0             -5351.6416      1436.5818      16305.193    
     18200   577.30631     -5458.1684      0             -5355.8607      791.18891      16302.85     
     18300   601.96112     -5463.2198      0             -5356.5429     -1760.761       16309.15     
     18400   599.13899     -5459.8272      0             -5353.6503      514.18154      16302.617    
     18500   627.55903     -5460.5114      0             -5349.2981     -2095.6923      16330.221    
     18600   617.52575     -5456.3653      0             -5346.93        1762.0659      16304.819    
     18700   612.28663     -5457.3968      0             -5348.89       -3130.3173      16347.273    
     18800   591.53665     -5458.3087      0             -5353.4792      3616.6454      16281.445    
     18900   576.68295     -5459.7983      0             -5357.601      -1930.9788      16318.136    
     19000   589.80936     -5460.894       0             -5356.3705      675.53183      16297.334    
     19100   597.78734     -5457.9425      0             -5352.0052      2259.8994      16303.745    
     19200   612.80974     -5457.0258      0             -5348.4263     -4261.7054      16360.236    
     19300   609.07106     -5456.2566      0             -5348.3197      5890.6082      16258.369    
     19400   593.45154     -5457.7984      0             -5352.6295     -4987.4374      16374.155    
     19500   600.0093      -5462.4849      0             -5356.1539      2708.2156      16270.806    
     19600   570.62864     -5458.0363      0             -5356.912       163.09147      16309.734    
     19700   602.36324     -5460.143       0             -5353.3948     -984.86737      16329.549    
     19800   604.65878     -5456.7059      0             -5349.5509      4422.6294      16281.354    
     19900   585.93333     -5452.8978      0             -5349.0612     -4686.4147      16377.343    
     20000   613.6536      -5459.8457      0             -5351.0967      6088.3074      16255.833    
     20100   590.12262     -5459.6873      0             -5355.1083     -5224.0745      16361.523    
     20200   595.86547     -5461.7118      0             -5356.1151      2995.4126      16275.762    
     20300   610.40211     -5462.7465      0             -5354.5737     -2059.5506      16316.875    
     20400   597.4189      -5457.0423      0             -5351.1703     -460.8172       16323.849    
     20500   607.68166     -5456.5059      0             -5348.8152      2800.7224      16293.353    
     20600   608.66582     -5458.1598      0             -5350.2947     -4630.0681      16354.396    
     20700   588.8671      -5458.4966      0             -5354.1401      5079.219       16262.955    
     20800   587.97924     -5460.9449      0             -5356.7458     -4218.5275      16347.58     
     20900   593.69975     -5460.9176      0             -5355.7047      2940.2886      16273.698    
     21000   596.4994      -5458.6329      0             -5352.9239     -1389.9077      16324.125    
     21100   610.5338      -5457.1606      0             -5348.9644     -769.0929       16325.186    
     21200   611.7549      -5457.0731      0             -5348.6606      3398.2229      16289.123    
     21300   604.06024     -5459.4414      0             -5352.3925     -5026.6262      16360.347    
     21400   610.14711     -5462.7176      0             -5354.59        4097.2594      16257.445    
     21500   589.5814      -5460.6529      0             -5356.1698     -3586.603       16339.763    
     21600   611.1965      -5462.2212      0             -5353.9076      1316.9422      16289.971    
     21700   585.51918     -5454.9609      0             -5351.1977      1243.2829      16301.974    
     21800   613.86955     -5457.1777      0             -5348.3904     -2556.0036      16346.974    
     21900   610.76537     -5457.2874      0             -5349.0502      2888.7354      16283.075    
     22000   583.78102     -5456.6409      0             -5353.1857     -2403.7735      16336.553    
     22100   590.02638     -5459.6132      0             -5355.0512      2102.6251      16277.919    
     22200   592.62251     -5460.0675      0             -5355.0455     -862.18115      16314.352    
     22300   576.45724     -5455.4065      0             -5353.2493      547.84137      16312.713    
     22400   600.92306     -5456.3512      0             -5349.8583      2975.1684      16288.754    
     22500   611.35766     -5458.1914      0             -5349.8492     -3862.544       16351.322    
     22600   614.47904     -5460.0116      0             -5351.1163      3146.9231      16275.64     
     22700   618.31147     -5463.1121      0             -5353.5376     -3770.7022      16334.542    
     22800   598.61532     -5461.06        0             -5354.9759      1205.2622      16292.68     
     22900   592.35687     -5458.9439      0             -5353.969       106.52661      16307.399    
     23000   586.32692     -5456.2964      0             -5352.3901     -1597.1669      16323.915    
     23100   602.47116     -5457.3325      0             -5350.5651      2810.3689      16289.255    
     23200   590.75393     -5456.8578      0             -5352.167      -1212.3465      16339.891    
     23300   606.76456     -5461.8014      0             -5354.2732      1071.3984      16294.586    
     23400   594.95581     -5461.3763      0             -5355.9408     -404.41322      16309.634    
     23500   602.82261     -5462.1627      0             -5355.3331     -1150.5525      16317.018    
     23600   617.59446     -5462.7491      0             -5353.3017      726.59182      16299.035    
     23700   599.74735     -5457.4233      0             -5351.1387     -1254.5593      16333.642    
     23800   617.10588     -5460.4811      0             -5351.1203      1504.2122      16293.567    
     23900   613.40444     -5462.0528      0             -5353.348      -2815.6176      16337.764    
     24000   593.4336      -5461.2385      0             -5356.0727      3020.2404      16281.623    
     24100   588.03908     -5460.1537      0             -5355.944      -208.65315      16317.945    
     24200   599.03384     -5460.2243      0             -5354.0661     -980.12094      16315.918    
     24300   601.40095     -5459.1675      0             -5352.5898      1260.6175      16294.496    
     24400   616.58999     -5461.2951      0             -5352.0257     -2752.3733      16341.627    
     24500   614.03593     -5462.3169      0             -5353.5002      1663.968       16288.833    
     24600   608.30001     -5462.8771      0             -5355.0768     -2360.0507      16326.416    
     24700   593.02854     -5460.5701      0             -5355.4762      1750.5471      16296.961    
     24800   595.90815     -5460.3279      0             -5354.7236     -615.70469      16318.666    
     24900   606.23424     -5460.5699      0             -5353.1357      238.64207      16310.585    
     25000   608.95326     -5459.5741      0             -5351.658       931.89846      16303.121    
     25100   604.60014     -5459.5494      0             -5352.4048     -1471.9547      16324.964    
     25200   592.81147     -5459.6268      0             -5354.5713      869.71658      16304.064    
     25300   589.34313     -5460.4298      0             -5355.9889      501.5776       16308.08     
     25400   589.85575     -5460.0691      0             -5355.5374     -461.58224      16316.513    
     25500   604.92183     -5461.5005      0             -5354.2989      1091.2609      16299.272    
     25600   596.3293      -5458.5         0             -5352.8211     -663.56693      16321.814    
     25700   602.19095     -5459.3717      0             -5352.654      -192.55672      16318.618    
     25800   606.02203     -5460.7849      0             -5353.3883      1250.8132      16295.645    
     25900   602.52386     -5461.211       0             -5354.4343     -1179.8255      16320.792    
     26000   598.60273     -5461.3687      0             -5355.2869      221.00593      16304.683    
     26100   595.54459     -5460.4547      0             -5354.9149      1112.345       16301.79     
     26200   594.73679     -5459.8884      0             -5354.4917     -820.83084      16325.862    
     26300   603.76928     -5460.7749      0             -5353.7775      1315.8858      16291.56     
     26400   597.55331     -5459.8994      0             -5354.0036     -2979.845       16338.332    
     26500   580.48157     -5458.1773      0             -5355.3069      3473.5294      16284.882    
     26600   606.9875      -5463.3695      0             -5355.8018     -1015.085       16314.163    
     26700   603.34563     -5461.9922      0             -5355.07       -1469.2707      16321.191    
     26800   605.8663      -5461.298       0             -5353.929       1279.0789      16289.41     
     26900   607.19285     -5461.1367      0             -5353.5326     -1729.4101      16329.83     
     27000   600.43881     -5460.395       0             -5353.9879      1567.3819      16299.14     
     27100   592.56463     -5460.5807      0             -5355.569      -1401.9276      16324.533    
     27200   600.61432     -5463.0561      0             -5356.6178      1731.2764      16296.934    
     27300   589.78613     -5461.806       0             -5357.2867     -1308.9617      16321.052    
     27400   596.67061     -5462.1247      0             -5356.3854      229.7556       16301.814    
     27500   599.81971     -5461.8912      0             -5355.5938      896.35874      16306.698    
     27600   612.23308     -5462.8523      0             -5354.355      -2432.1059      16337.856    
     27700   615.06235     -5463.9612      0             -5354.9625      3039.2979      16278.662    
     27800   593.95456     -5461.559       0             -5356.3009     -4000.2694      16357.686    
     27900   608.49766     -5464.9766      0             -5357.1413      4406.2286      16263.854    
     28000   585.99463     -5461.3121      0             -5357.4647     -2042.7266      16334.252    
     28100   598.8438      -5462.7717      0             -5356.6472      339.39186      16303.143    
     28200   587.29862     -5459.4801      0             -5355.4016      2845.8363      16294.163    
     28300   602.21728     -5461.3558      0             -5354.6335     -4579.7919      16358.852    
     28400   605.47146     -5462.4265      0             -5355.1275      5613.488       16261.278    
     28500   597.3552      -5463.1335      0             -5357.2728     -5772.2819      16360.987    
     28600   601.95849     -5465.0016      0             -5358.3251      4981.316       16259.549    
     28700   590.26466     -5463.208       0             -5358.6038     -3713.9139      16346.285    
     28800   597.34229     -5462.1019      0             -5356.2435      1213.3237      16298.944    
     28900   599.36905     -5460.0957      0             -5353.8781      2106.907       16295.131    
     29000   609.27603     -5461.5677      0             -5353.5945     -4220.6521      16360.541    
     29100   609.36291     -5463.48        0             -5355.4914      3742.2864      16271.749    
     29200   582.20516     -5462.006       0             -5358.8301     -3500.0291      16347.718    
     29300   610.97205     -5467.1493      0             -5358.8755      2321.2722      16286.478    
     29400   602.36836     -5464.5295      0             -5357.7804     -1248.6793      16320.102    
     29500   607.05616     -5462.6192      0             -5355.0393     -1210.0902      16327.692    
     29600   621.84482     -5463.5431      0             -5353.3424      1980.415       16297.632    
     29700   605.47056     -5461.8049      0             -5354.506      -2932.8013      16349.78     
     29800   599.37149     -5463.1633      0             -5356.9453      2962.9266      16283.374    
     29900   597.25631     -5464.6994      0             -5358.8562     -2439.7281      16333.672    
     30000   581.08457     -5461.3815      0             -5358.4042      1930.1029      16298.376    
     30100   599.65854     -5462.5176      0             -5356.2487      1373.7669      16305.834    
     30200   596.76086     -5460.4306      0             -5354.6752     -2138.2775      16339.056    
     30300   604.6279      -5461.3221      0             -5354.1726      3572.5809      16285.057    
     30400   609.30722     -5464.6665      0             -5356.6877     -4852.7636      16354.494    
     30500   587.78367     -5463.8256      0             -5359.6611      4183.1843      16269.417    
     30600   602.02014     -5466.8301      0             -5360.1427     -1074.2137      16317.262    
     30700   599.65384     -5463.6902      0             -5357.4222     -1822.5696      16322.919    
     30800   611.7798      -5462.4535      0             -5354.0365      2454.0891      16287.416    
     30900   595.11998     -5459.4438      0             -5353.9792     -3072.1604      16362.611    
     31000   610.90931     -5463.5382      0             -5355.2755      3587.9846      16279.222    
     31100   587.14415     -5463.0444      0             -5358.9933     -2374.6184      16333.146    
     31200   590.74471     -5465.2312      0             -5360.542       372.91626      16310.583    
     31300   597.78394     -5465.1173      0             -5359.1806      1808.1753      16286.038    
     31400   607.86109     -5464.4756      0             -5356.7531     -2319.4369      16336.763    
     31500   610.9722      -5462.8823      0             -5354.6084      773.25095      16311.793    
     31600   599.99774     -5461.2113      0             -5354.8823     -126.57593      16318.456    
     31700   602.87973     -5464.279       0             -5357.4393      126.4808       16311.176    
     31800   592.57371     -5465.0956      0             -5360.0823     -455.01432      16314.983    
     31900   579.09112     -5462.838       0             -5360.214       1747.1914      16293.278    
     32000   594.73284     -5463.1312      0             -5357.7352     -892.34725      16325.954    
     32100   619.04465     -5463.874       0             -5354.1695     -521.12517      16317.167    
     32200   601.67524     -5460.3702      0             -5353.7439      1824.9984      16310.029    
     32300   586.58426     -5460.8569      0             -5356.905      -2178.4167      16345.171    
     32400   565.02904     -5460.0299      0             -5359.8979      3925.4401      16283.464    
     32500   588.43576     -5465.2545      0             -5360.9745     -1509.1724      16332.726    
     32600   604.93291     -5466.0181      0             -5358.8145      528.62549      16298.002    
     32700   611.67587     -5464.3812      0             -5355.9827      626.89765      16309.176    
     32800   591.9097      -5459.6903      0             -5354.7946     -1361.6134      16342.392    
     32900   604.50937     -5462.7563      0             -5355.6277      3938.9021      16276.077    
     33000   576.27367     -5460.8826      0             -5358.7579     -4395.5261      16353.69     
     33100   590.90793     -5464.077       0             -5359.3588      6511.0892      16250.818    
     33200   585.76257     -5463.2497      0             -5359.4434     -4346.1672      16357.71     
     33300   593.96938     -5462.0417      0             -5356.781       1856.883       16302.138    
     33400   609.33269     -5462.1242      0             -5354.1409      1068.2014      16304.01     
     33500   600.53204     -5461.9187      0             -5355.495      -5456.1113      16377.406    
     33600   605.82116     -5464.6605      0             -5357.2995      8386.5798      16236.706    
     33700   582.85136     -5463.2334      0             -5359.943      -8143.1694      16390.928    
     33800   577.98109     -5461.774       0             -5359.3467      7201.8394      16251.273    
     33900   595.87762     -5463.0426      0             -5357.4438     -2760.7634      16338.108    
     34000   606.44639     -5462.7571      0             -5355.2854     -1241.4675      16324.952    
     34100   626.17794     -5465.4806      0             -5354.5121      2820.5836      16280.747    
     34200   615.17786     -5465.4008      0             -5356.3817     -6570.8678      16379.846    
     34300   602.6739      -5465.0692      0             -5358.2659      5797.1442      16254.431    
     34400   597.63543     -5465.9392      0             -5360.0288     -5174.8656      16354.005    
     34500   597.64963     -5465.0614      0             -5359.1485      3687.9195      16282.906    
     34600   597.7367      -5462.3563      0             -5356.428      -214.63768      16317.659    
     34700   608.25922     -5462.1535      0             -5354.3604     -2501.6782      16338.45     
     34800   620.06958     -5463.913       0             -5354.027       3128.3707      16290.032    
     34900   596.22609     -5462.4932      0             -5356.8326     -3773.0896      16351.954    
     35000   603.58918     -5466.543       0             -5359.5776      3136.6024      16277.86     
     35100   577.59654     -5463.5609      0             -5361.2017     -2936.9959      16341.719    
     35200   612.10448     -5466.7933      0             -5358.3188      2707.8126      16292.298    
     35300   609.24496     -5462.5432      0             -5354.5754     -2000.7542      16335.943    
     35400   615.7105      -5463.1288      0             -5354.0152     -647.40073      16326.138    
     35500   594.72688     -5463.2985      0             -5357.9036      1134.1509      16306.052    
     35600   584.11027     -5467.2454      0             -5363.7319     -100.74466      16306.279    
     35700   587.90254     -5466.0611      0             -5361.8756     -490.60137      16313.616    
     35800   592.07734     -5462.6037      0             -5357.6783      1848.2076      16311.668    
     35900   615.76197     -5464.2134      0             -5355.0907     -2534.129       16336.288    
     36000   593.28769     -5461.5272      0             -5356.3873      2033.8832      16304.214    
     36100   585.45192     -5462.3794      0             -5358.6281     -544.32582      16326.059    
     36200   585.64012     -5466.8177      0             -5363.0331      504.34883      16297.306    
     36300   560.52372     -5466.8851      0             -5367.5515      615.15379      16296.391    
     36400   585.97236     -5467.4642      0             -5363.6207      204.9331       16305.992    
     36500   576.51643     -5461.922       0             -5359.7543      580.88978      16305.617    
     36600   598.08081     -5463.5109      0             -5357.5216      481.99547      16315.677    
     36700   595.315       -5461.3114      0             -5355.8123      465.4945       16324.291    
     36800   615.90535     -5463.7795      0             -5354.6315      84.886182      16314.989    
     36900   602.39826     -5465.2596      0             -5358.5052     -1131.4025      16326.502    
     37000   600.47058     -5468.9027      0             -5362.4899      560.79121      16295.02     
     37100   603.07851     -5468.4047      0             -5361.5298     -670.19574      16315.571    
     37200   594.38939     -5461.9679      0             -5356.6327     -579.54679      16330.69     
     37300   598.06625     -5461.1843      0             -5355.1976      1798.9915      16307.071    
     37400   611.74268     -5464.2064      0             -5355.796      -3372.9429      16354.416    
     37500   601.68185     -5465.3513      0             -5358.7239      4307.6768      16277.868    
     37600   593.6554      -5466.2167      0             -5361.0117     -4598.5147      16359.544    
     37700   603.48435     -5465.0148      0             -5358.0679      4243.1697      16276.835    
     37800   624.64948     -5463.6305      0             -5352.9328     -2842.8756      16344.126    
     37900   620.76695     -5462.8268      0             -5352.8172     -2433.1691      16345.396    
     38000   594.28058     -5463.3725      0             -5358.0567      5535.3327      16273.327    
     38100   587.54144     -5463.9102      0             -5359.7886     -6606.9829      16376.181    
     38200   596.32318     -5464.4229      0             -5358.7451      7700.4338      16239.044    
     38300   577.86876     -5460.6361      0             -5358.2287     -6738.0664      16390.545    
     38400   622.84196     -5463.6329      0             -5353.2555      5026.692       16272.046    
     38500   603.26771     -5458.7201      0             -5351.8117     -1548.4149      16349.347    
     38600   617.72894     -5464.6309      0             -5355.1597     -2458.9693      16341.751    
     38700   605.01085     -5464.944       0             -5357.7266      4387.8609      16276.184    
     38800   593.47664     -5463.4851      0             -5358.3117     -5789.3038      16376.431    
     38900   624.51154     -5468.472       0             -5357.7988      4815.7427      16264.471    
     39000   596.56607     -5465.6519      0             -5359.931      -5408.8499      16365.617    
     39100   599.93729     -5467.7204      0             -5361.4021      3195.907       16280.365    
     39200   575.15833     -5462.2955      0             -5360.3685      73.087799      16327.542    
     39300   613.89607     -5464.3369      0             -5355.5449     -2513.902       16341.451    
     39400   612.77684     -5462.56        0             -5353.9663      3850.7442      16288.993    
     39500   586.09107     -5460.7932      0             -5356.9287     -4397.5912      16366.296    
     39600   605.66757     -5467.0653      0             -5359.7315      4249.7668      16275.566    
     39700   578.65202     -5468.3117      0             -5365.7655     -3653.4735      16334.36     
     39800   572.98409     -5469.8515      0             -5368.3098      1340.97        16287.673    
     39900   588.19959     -5465.2452      0             -5361.007       1630.7537      16303.874    
     40000   607.88772     -5464.9967      0             -5357.2694     -2820.6303      16348.876    
     40100   625.33214     -5465.8765      0             -5355.0579      2306.3016      16301.206    
     40200   602.62403     -5463.7316      0             -5356.9372     -3854.606       16357.034    
     40300   593.68876     -5465.5123      0             -5360.3013      3051.8397      16291.933    
     40400   598.48886     -5469.3318      0             -5363.2702     -1949.7976      16327.766    
     40500   599.48147     -5467.8494      0             -5361.6119     -1681.218       16325.82     
     40600   600.81782     -5461.8128      0             -5355.3385      3013.7203      16297.453    
     40700   609.20517     -5463.2515      0             -5355.2908     -3692.0253      16366.401    
     40800   603.05605     -5465.0758      0             -5358.2048      3648.0974      16286.907    
     40900   610.71699     -5469.7456      0             -5361.517      -3133.0051      16336.839    
     41000   607.33964     -5468.8966      0             -5361.2665     -605.1575       16310.413    
     41100   600.87063     -5464.0737      0             -5357.59        2848.5759      16304.155    
     41200   626.47572     -5461.3514      0             -5350.3301     -4022.9101      16376.262    
     41300   621.24845     -5462.9154      0             -5352.8204      3143.0425      16300.868    
     41400   601.62981     -5464.8362      0             -5358.218      -3179.5134      16358.495    
     41500   608.68702     -5468.3114      0             -5360.4426      1970.3448      16299.884    
     41600   589.79377     -5466.2838      0             -5361.7631      514.81452      16314.827    
     41700   618.21098     -5469.0531      0             -5359.4964     -4262.2088      16348.839    
     41800   615.34137     -5463.5246      0             -5354.4765      4258.3559      16289.654    
     41900   613.87674     -5462.5292      0             -5353.7406     -3863.6606      16374.907    
     42000   594.00646     -5463.7342      0             -5358.467       3806.6669      16283.444    
     42100   587.06674     -5466.8514      0             -5362.814      -2799.5894      16344.349    
     42200   603.21106     -5468.5298      0             -5361.6313      1768.6758      16302.277    
     42300   605.33181     -5465.706       0             -5358.4317     -636.16405      16330.371    
     42400   595.71169     -5461.5417      0             -5355.9723     -822.04769      16339.688    
     42500   615.77305     -5465.0374      0             -5355.9127      2820.7466      16305.411    
     42600   584.90926     -5465.8193      0             -5362.1643     -4385.0464      16366.799    
     42700   594.01463     -5469.0269      0             -5363.7582      5727.3719      16259.825    
     42800   603.65968     -5468.5069      0             -5361.5289     -6235.1283      16371.067    
     42900   610.63461     -5465.4826      0             -5357.2686      3383.3309      16292.122    
     43000   607.45235     -5463.9539      0             -5356.3038     -237.12791      16334.845    
     43100   593.98326     -5463.0476      0             -5357.7845     -1302.7284      16340.53     
     43200   614.97096     -5469.5517      0             -5360.5692      1123.8925      16299.143    
     43300   588.52005     -5467.4926      0             -5363.1976     -2422.4919      16345.12     
     43400   595.41353     -5467.0969      0             -5361.5803      3268.0912      16293.732    
     43500   603.33482     -5461.6542      0             -5354.7338     -1146.6273      16347.571    
     43600   626.21014     -5464.6611      0             -5353.6868     -382.12627      16333.866    
     43700   617.06489     -5466.4516      0             -5357.098       51.067319      16331.188    
     43800   592.97919     -5464.9993      0             -5359.9141      96.993735      16324.708    
     43900   604.34381     -5468.0431      0             -5360.944       776.18408      16317.907    
     44000   590.82535     -5465.8442      0             -5361.1407     -1927.1701      16341.279    
     44100   611.58477     -5465.2825      0             -5356.9001      2343.1539      16306.547    
     44200   620.41279     -5462.4498      0             -5352.503      -2900.7103      16365.852    
     44300   622.59585     -5464.9588      0             -5354.625       1268.5421      16323.889    
     44400   596.36555     -5466.5555      0             -5360.8701      262.18517      16323.079    
     44500   585.10077     -5465.3936      0             -5361.7046     -412.91893      16326.859    
     44600   601.28987     -5466.7776      0             -5360.2196      224.14343      16318.363    
     44700   628.38249     -5469.7253      0             -5358.3661     -1806.8267      16332.845    
     44800   599.36496     -5464.5987      0             -5358.3818      1596.4367      16320.11     
     44900   598.97342     -5468.285       0             -5362.1375     -3179.8834      16342.552    
     45000   601.73096     -5471.9753      0             -5365.3392      2667.2692      16286.674    
     45100   589.77279     -5467.4452      0             -5362.9282     -2753.8706      16342.044    
     45200   608.33311     -5465.7834      0             -5357.9773      1282.3379      16306.819    
     45300   595.1397      -5463.6807      0             -5358.2126      16.250425      16334.064    
     45400   586.07399     -5462.9592      0             -5359.0977      145.30822      16326.578    
     45500   600.20121     -5467.1833      0             -5360.8183      213.81226      16315.017    
     45600   582.653       -5468.0303      0             -5364.775      -2194.5216      16330.749    
     45700   576.76347     -5468.622       0             -5366.4105      4177.1863      16277.88     
     45800   582.81082     -5465.5241      0             -5362.2409     -3168.0747      16359.059    
     45900   625.11321     -5467.7106      0             -5356.9308      3196.4404      16288.281    
     46000   600.22072     -5464.1826      0             -5357.8141     -2792.1912      16350.381    
     46100   593.16145     -5465.6514      0             -5360.5339      767.1407       16313.616    
     46200   570.17032     -5465.4879      0             -5364.4448      2400.9095      16295.82     
     46300   578.86686     -5468.0193      0             -5365.435      -1881.0319      16337.624    
     46400   598.23709     -5465.2578      0             -5359.2409      2436.2085      16294.083    
     46500   618.46561     -5465.3618      0             -5355.76       -2506.464       16349.924    
     46600   621.59982     -5467.3476      0             -5357.1904      746.92691      16315.498    
     46700   587.78566     -5465.6465      0             -5361.4817      57.056714      16319.469    
     46800   588.72343     -5466.6367      0             -5362.3057     -513.3498       16325.342    
     46900   606.24617     -5468.4193      0             -5360.983       1298.1224      16301.596    
     47000   619.17643     -5463.4334      0             -5353.7057     -2617.7118      16355.148    
     47100   600.32977     -5460.4566      0             -5354.0688      3261.4297      16309.984    
     47200   607.1683      -5465.3939      0             -5357.7941     -1164.6289      16338.723    
     47300   589.343       -5465.4011      0             -5360.9603      149.5982       16315.229    
     47400   584.05238     -5465.3847      0             -5361.8815      949.62836      16319.231    
     47500   596.70663     -5467.1341      0             -5361.3884     -2462.8115      16341.24     
     47600   615.4062      -5465.325       0             -5356.2653      5965.5721      16281.585    
     47700   610.56886     -5459.7808      0             -5351.5784     -8304.2679      16421.808    
     47800   629.89318     -5464.0711      0             -5352.4441      7445.1576      16266.799    
     47900   596.12219     -5466.0577      0             -5360.4155     -4269.6003      16366.478    
     48000   594.19071     -5466.2901      0             -5360.9902      83.437736      16318.478    
     48100   616.50203     -5469.5709      0             -5360.3171      4170.1762      16283.513    
     48200   597.59371     -5466.1168      0             -5360.2139     -6469.7437      16389.292    
     48300   610.30727     -5467.562       0             -5359.406       6079.1725      16264.027    
     48400   593.0432      -5466.0902      0             -5360.9936     -5785.2227      16379.364    
     48500   598.0495      -5468.5514      0             -5362.5677      4122.4364      16282.238    
     48600   569.78673     -5466.131       0             -5365.1559     -1272.5453      16335.336    
     48700   593.37477     -5468.7945      0             -5363.6392     -578.30807      16318.133    
     48800   589.52963     -5462.9317      0             -5358.4578      4575.6316      16296.085    
     48900   576.31142     -5459.9527      0             -5357.8213     -5351.2411      16383.614    
     49000   606.74349     -5465.7541      0             -5358.2297      6665.1945      16266.112    
     49100   571.31545     -5465.3491      0             -5364.103      -5696.6993      16378.418    
     49200   579.03899     -5469.5129      0             -5366.8982      6724.2354      16253.957    
     49300   571.78225     -5466.277       0             -5364.9482     -3757.5457      16357.011    
     49400   597.21262     -5466.7797      0             -5360.9443      1146.6044      16315.589    
     49500   589.38991     -5464.8141      0             -5360.3649      1426.2331      16309.468    
     49600   581.78542     -5463.0477      0             -5359.9462     -3210.6018      16363.593    
     49700   613.93782     -5465.5267      0             -5356.7273      3923.2086      16285.748    
     49800   605.11745     -5462.7223      0             -5355.486      -2785.5079      16370.074    
     49900   596.15364     -5463.8374      0             -5358.1896      1409.516       16317.155    
     50000   585.8163      -5467.2267      0             -5363.4109      956.2815       16313.775    
     50100   589.7275      -5468.2562      0             -5363.7473     -2191.2004      16333.994    
     50200   609.59181     -5468.7642      0             -5360.735       2019.492       16297.78     
     50300   603.36469     -5464.7261      0             -5357.8005     -2286.1725      16355.429    
     50400   638.1686      -5470.1274      0             -5357.0339      1285.2693      16305.985    
     50500   598.19616     -5465.0599      0             -5359.0502     -1557.4236      16342.708    
     50600   596.26095     -5466.3456      0             -5360.6788      1147.8143      16310.66     
     50700   606.07135     -5468.4158      0             -5361.0105     -861.38722      16317.61     
     50800   581.469       -5465.2865      0             -5362.2411      76.064621      16325.603    
     50900   584.62825     -5466.1032      0             -5362.4979      1352.1293      16309.236    
     51000   598.452       -5466.1108      0             -5360.0557     -380.73627      16333.095    
     51100   622.90114     -5467.9396      0             -5357.5518     -437.6027       16328.974    
     51200   624.07135     -5466.9464      0             -5356.3512     -1583.1728      16340.17     
     51300   603.48543     -5468.3855      0             -5361.4384      477.21682      16327.603    
     51400   594.04683     -5470.1147      0             -5364.8403     -597.97847      16323.128    
     51500   575.36027     -5465.6879      0             -5363.7251      453.75844      16325.005    
[...]
    981800   601.36204     -5483.5248      0             -5376.9541      3533.7866      16307.441    
    981900   592.29556     -5483.4398      0             -5378.4757     -1373.23        16357.862    
    982000   586.11161     -5480.3839      0             -5376.5158     -1276.4691      16361.726    
    982100   609.55689     -5480.0815      0             -5372.0585      3588.7944      16314.841    
    982200   605.77373     -5478.3808      0             -5371.0282     -5226.7705      16414.051    
    982300   618.76918     -5483.6809      0             -5374.0253      5371.1846      16296.934    
    982400   596.29255     -5485.9752      0             -5380.3028     -4495.3227      16380.99     
    982500   600.87852     -5484.8939      0             -5378.4088      1121.238       16322.304    
    982600   616.08604     -5484.2317      0             -5375.0516     -640.77816      16353.332    
    982700   581.92056     -5476.1791      0             -5373.0537     -1134.3093      16368.82     
    982800   602.19451     -5477.867       0             -5371.1487      4134.825       16321.897    
    982900   611.48344     -5481.2673      0             -5372.9029     -5430.58        16404.816    
    983000   592.52732     -5483.0474      0             -5378.0423      5048.4243      16294.235    
    983100   574.73138     -5482.0125      0             -5380.1611     -2233.9282      16368.63     
    983200   597.67031     -5483.0584      0             -5377.1419      1306.5791      16334.538    
    983300   604.19808     -5480.4518      0             -5373.3785      492.28509      16356.41     
    983400   589.49        -5478.4277      0             -5373.9609     -1783.1261      16368.931    
    983500   595.80975     -5479.6422      0             -5374.0554      3097.3466      16329.059    
    983600   592.31862     -5482.4129      0             -5377.4447     -3523.0035      16375.345    
    983700   594.06886     -5488.0826      0             -5382.8042      2204.0841      16313.955    
    983800   556.14145     -5481.455       0             -5382.898      -913.79144      16352.972    
    983900   584.04671     -5481.479       0             -5377.9768      1058.0565      16337.886    
    984000   600.28443     -5482.4212      0             -5376.0414     -563.61064      16363.034    
    984100   620.74399     -5484.1724      0             -5374.1668     -681.48313      16353.371    
    984200   621.15194     -5482.418       0             -5372.3402      146.11661      16348.483    
    984300   619.83446     -5482.5675      0             -5372.7231     -2720.6986      16375.017    
    984400   594.95869     -5483.8649      0             -5378.4289      2432.7001      16328.457    
    984500   594.16261     -5484.8354      0             -5379.5405     -1775.0536      16362.408    
    984600   582.98683     -5480.7274      0             -5377.413       1500.3634      16330.027    
    984700   609.02308     -5480.3693      0             -5372.4409     -1022.751       16366.116    
    984800   622.17629     -5481.1514      0             -5370.892       380.21457      16359.305    
    984900   616.09289     -5481.6718      0             -5372.4905     -597.12948      16356.532    
    985000   591.04937     -5479.8523      0             -5375.1091     -53.385911      16356.738    
    985100   607.39494     -5483.9329      0             -5376.293       1313.2874      16339.425    
    985200   586.91432     -5483.9803      0             -5379.9699     -667.56525      16346.411    
    985300   571.04996     -5484.5837      0             -5383.3847      530.79956      16339.606    
    985400   589.06158     -5485.3969      0             -5381.006       262.94753      16339.893    
    985500   586.90934     -5478.8918      0             -5374.8823      195.16124      16353.925    
    985600   594.9941      -5478.6429      0             -5373.2006      81.685119      16361.371    
    985700   602.37922     -5480.8141      0             -5374.0631     -28.546598      16358.013    
    985800   577.96821     -5480.6526      0             -5378.2276      402.52696      16342.567    
    985900   573.83952     -5482.3268      0             -5380.6335      1506.6808      16341.73     
    986000   590.00788     -5482.8505      0             -5378.2919     -2159.7932      16361.545    
    986100   599.84006     -5478.7895      0             -5372.4884      1873.2469      16340.731    
    986200   616.23376     -5481.1576      0             -5371.9513     -3067.8222      16391.385    
    986300   589.17667     -5480.3534      0             -5375.9421      3707.3783      16322.899    
    986400   594.05412     -5484.4366      0             -5379.1609     -2109.0002      16370.189    
    986500   574.02785     -5480.5596      0             -5378.8329      2055.8808      16333.181    
    986600   599.04582     -5482.3691      0             -5376.2088      876.58365      16343.8      
    986700   601.74433     -5481.2625      0             -5374.6239     -4072.9044      16394.248    
    986800   603.85159     -5482.3524      0             -5375.3404      6834.9613      16293.74     
    986900   570.21217     -5478.3317      0             -5377.2812     -6594.4083      16415.618    
    987000   591.30008     -5481.2105      0             -5376.4229      7194.8134      16293.58     
    987100   592.77835     -5479.9737      0             -5374.9241     -3740.0224      16398.327    
    987200   620.05107     -5481.5847      0             -5371.702       1421.9824      16341.876    
    987300   605.97552     -5478.7609      0             -5371.3726      1803.731       16345.375    
    987400   596.69458     -5481.9369      0             -5376.1933     -4702.096       16393.822    
    987500   600.22977     -5484.9513      0             -5378.5812      6898.7551      16283.218    
    987600   583.42863     -5482.0912      0             -5378.6985     -6537.7625      16411.626    
    987700   588.52507     -5480.6022      0             -5376.3063      5904.3025      16300.515    
    987800   608.09178     -5483.3472      0             -5375.5839     -3902.4779      16393.46     
    987900   594.76089     -5481.0029      0             -5375.6019      1421.746       16337.925    
    988000   606.10816     -5482.2195      0             -5374.8077      1551.7911      16345.328    
    988100   604.62141     -5482.873       0             -5375.7246     -5336.1275      16404.566    
    988200   591.62783     -5483.9476      0             -5379.1019      6895.7084      16283.607    
    988300   574.88335     -5484.2248      0             -5382.3464     -6014.9578      16403.078    
    988400   597.3619      -5484.8713      0             -5379.0094      4683.3011      16297.562    
    988500   603.58401     -5482.2007      0             -5375.2361     -3272.731       16387.696    
    988600   607.74504     -5481.5522      0             -5373.8503      439.34144      16353.991    
    988700   624.55245     -5484.7076      0             -5374.0271      803.11541      16342.83     
    988800   601.72823     -5485.4851      0             -5378.8494     -5067.4398      16392.998    
    988900   586.98046     -5485.0151      0             -5380.993       6648.59        16290.579    
    989000   577.14156     -5480.9691      0             -5378.6906     -5931.3102      16410.938    
    989100   585.90047     -5480.9749      0             -5377.1442      7142.1308      16293.921    
    989200   598.55297     -5482.1849      0             -5376.112      -5620.4816      16405.209    
    989300   609.19943     -5482.171       0             -5374.2114      2591.0745      16337.121    
    989400   612.35652     -5481.9209      0             -5373.4017      540.8095       16352.543    
    989500   601.61952     -5481.8674      0             -5375.251      -3032.0565      16384.557    
    989600   589.00998     -5484.0325      0             -5379.6508      2893.1722      16321.379    
    989700   601.84434     -5487.7902      0             -5381.1339     -3525.2215      16373.523    
    989800   607.77448     -5484.827       0             -5377.1198      2047.5416      16325.841    
    989900   588.39246     -5478.1253      0             -5373.8529     -1598.8889      16386.151    
    990000   620.68642     -5483.5883      0             -5373.5929      253.48249      16345.707    
    990100   597.41576     -5481.1623      0             -5375.2909      1584.891       16355.463    
    990200   581.54682     -5481.4688      0             -5378.4096     -1260.17        16373.994    
    990300   575.91146     -5483.5358      0             -5381.4752      2800.6202      16318.342    
    990400   575.97275     -5485.5658      0             -5383.4944     -1975.006       16366.397    
    990500   586.557       -5483.6776      0             -5379.7305      2692.248       16322.177    
    990600   612.02241     -5483.3364      0             -5374.8764     -2962.8796      16383.009    
    990700   598.49533     -5479.3205      0             -5373.2578      2616.6635      16340.195    
    990800   598.57167     -5480.3611      0             -5374.2848      466.54795      16358.24     
    990900   613.73047     -5486.8929      0             -5378.1303     -3073.2463      16372.163    
    991000   586.16116     -5485.638       0             -5381.7611      3466.425       16310.709    
    991100   569.3727      -5483.7595      0             -5382.8577     -2972.9373      16375.929    
    991200   601.16595     -5482.8859      0             -5376.3499      2013.0538      16329.643    
    991300   612.80886     -5481.7461      0             -5373.1468     -1519.2615      16369.233    
    991400   617.0903      -5481.4124      0             -5372.0544     -691.74373      16366.459    
    991500   602.03322     -5481.286       0             -5374.5963      1484.6987      16337.183    
    991600   592.51184     -5484.2741      0             -5379.2717     -2710.1714      16372.52     
    991700   586.9872      -5483.6199      0             -5379.5966      2842.8947      16321.292    
    991800   572.24745     -5478.9605      0             -5377.5493     -907.87837      16374.489    
    991900   602.81652     -5480.89        0             -5374.0615      53.236038      16349.862    
    992000   613.30512     -5482.5609      0             -5373.8736      1195.8427      16344.3      
    992100   603.99505     -5482.6533      0             -5375.616      -1902.27        16380.815    
    992200   602.71502     -5484.3204      0             -5377.5099      1665.8265      16325.474    
    992300   582.69053     -5483.4091      0             -5380.1472     -2286.8626      16372.177    
    992400   588.52311     -5483.6319      0             -5379.3364      2422.6384      16331.873    
    992500   592.85871     -5478.4572      0             -5373.3934     -225.75261      16361.116    
    992600   609.64726     -5479.5675      0             -5371.5284     -996.3765       16370.482    
    992700   613.3773      -5483.3096      0             -5374.6095      1332.8158      16337.639    
    992800   586.23178     -5480.9524      0             -5377.063      -1757.508       16378.805    
    992900   610.72055     -5485.0019      0             -5376.7726      2387.3958      16325.817    
    993000   588.30031     -5481.3689      0             -5377.1129     -2462.8593      16371.826    
    993100   595.75599     -5481.6163      0             -5376.039       2263.4049      16336.95     
    993200   611.05309     -5483.9245      0             -5375.6364     -696.12497      16362.081    
    993300   602.14414     -5482.5858      0             -5375.8764     -791.38709      16363.745    
    993400   613.95658     -5481.4986      0             -5372.6959      1984.7331      16339.54     
    993500   615.25889     -5478.8969      0             -5369.8633     -4215.2532      16405.694    
    993600   631.22626     -5484.1057      0             -5372.2425      5600.2468      16312.593    
    993700   592.29496     -5482.5383      0             -5377.5744     -4823.2597      16400.801    
    993800   600.52002     -5484.8018      0             -5378.3802      3073.7576      16313.865    
    993900   598.96299     -5484.7273      0             -5378.5817     -1812.3958      16366.894    
    994000   597.51668     -5480.8495      0             -5374.9602     -553.81792      16365.425    
    994100   618.66635     -5480.8231      0             -5371.1858      2814.4384      16335.796    
    994200   595.12613     -5479.2126      0             -5373.7469     -4513.9192      16413.784    
    994300   628.98987     -5487.7097      0             -5376.2429      5695.67        16291.471    
    994400   585.01958     -5482.1686      0             -5378.494      -7341.1412      16417.132    
    994500   612.94175     -5485.8189      0             -5377.196       4988.6043      16308.318    
    994600   600.82054     -5483.2421      0             -5376.7672     -2274.045       16371.675    
    994700   590.92383     -5481.1702      0             -5376.4493     -818.67048      16360.813    
    994800   615.89404     -5481.2227      0             -5372.0767      3610.5063      16328.14     
    994900   603.44633     -5476.2901      0             -5369.35       -5071.4094      16426.209    
    995000   608.80823     -5480.7139      0             -5372.8235      5782.3727      16299.248    
    995100   590.82382     -5483.3204      0             -5378.6171     -4486.9085      16397.571    
    995200   598.62424     -5484.3679      0             -5378.2823      2775.4301      16326.654    
    995300   600.09624     -5483.5005      0             -5377.1541      554.99854      16343.172    
    995400   606.03538     -5482.5881      0             -5375.1892     -2984.6574      16383.991    
    995500   623.77518     -5482.8127      0             -5372.27        4449.5059      16317.498    
    995600   605.44662     -5478.3853      0             -5371.0906     -5242.7857      16415.301    
    995700   604.50121     -5482.131       0             -5375.0039      3571.633       16320.979    
    995800   588.92208     -5484.3937      0             -5380.0275     -1690.583       16371.504    
    995900   593.89309     -5485.7894      0             -5380.5423      1334.4064      16338.981    
    996000   595.59042     -5483.1799      0             -5377.632       220.46992      16350.971    
    996100   616.97961     -5482.7025      0             -5373.3641     -1335.4343      16371.618    
    996200   615.78472     -5481.7077      0             -5372.5811      1685.8763      16349.327    
    996300   595.77085     -5481.4634      0             -5375.8835     -1352.2281      16372.499    
    996400   588.14913     -5480.7795      0             -5376.5502      2671.6961      16337.362    
    996500   599.65569     -5482.7695      0             -5376.5012     -1089.539       16371.304    
    996600   609.4546      -5484.5795      0             -5376.5746      337.46902      16343.808    
    996700   587.71487     -5482.3953      0             -5378.243       601.73459      16353.626    
    996800   597.36916     -5485.8086      0             -5379.9454     -767.61579      16358.582    
    996900   586.34899     -5484.2879      0             -5380.3777      1952.7028      16330.715    
    997000   596.319       -5482.6317      0             -5376.9546     -2431.5166      16379.113    
    997100   602.39909     -5479.4865      0             -5372.732       2812.618       16335.17     
    997200   606.13043     -5480.6428      0             -5373.227      -1354.0427      16378.58     
    997300   601.13328     -5483.796       0             -5377.2658     -40.71376       16355.565    
    997400   588.25627     -5484.6293      0             -5380.3811      2054.885       16332.656    
    997500   581.94795     -5483.7707      0             -5380.6404     -2859.1999      16375.751    
    997600   597.00063     -5484.8742      0             -5379.0763      3212.7044      16319.702    
    997700   590.48551     -5481.2193      0             -5376.576      -2712.4465      16383.025    
    997800   623.69064     -5483.3088      0             -5372.7811      945.41572      16348.058    
    997900   631.96972     -5485.3434      0             -5373.3484     -789.62273      16369.257    
    998000   594.80657     -5484.1507      0             -5378.7417     -2304.1718      16364.395    
    998100   600.08055     -5486.1546      0             -5379.8109      3964.1762      16317.364    
    998200   597.47264     -5484.4577      0             -5378.5762     -5016.4216      16399.166    
    998300   605.48734     -5483.9512      0             -5376.6494      3979.132       16317.057    
    998400   594.17304     -5481.2315      0             -5375.9347     -1450.7995      16383.867    
    998500   607.15765     -5481.832       0             -5374.2341      87.058101      16351.245    
    998600   606.65205     -5481.1206      0             -5373.6123      927.03859      16356.186    
    998700   600.86518     -5483.3309      0             -5376.8482     -2293.2504      16379.725    
    998800   593.38787     -5486.0241      0             -5380.8665      2698.4656      16319.928    
    998900   579.05318     -5484.5017      0             -5381.8844     -1773.1861      16377.941    
    999000   603.49441     -5485.1892      0             -5378.2406      1372.025       16332.654    
    999100   611.34046     -5482.7416      0             -5374.4025     -365.78776      16364.088    
    999200   618.11204     -5483.8423      0             -5374.3032     -1546.8149      16375.766    
    999300   590.9356      -5481.685       0             -5376.9619      3057.7718      16329.003    
    999400   582.21912     -5483.3106      0             -5380.1323     -3707.5055      16385.545    
    999500   580.63346     -5483.5255      0             -5380.6281      3808.9663      16315.455    
    999600   613.15037     -5485.2277      0             -5376.5678     -2238.3894      16376.632    
    999700   614.24589     -5480.451       0             -5371.597       1152.4703      16356.791    
    999800   593.10556     -5478.4323      0             -5373.3247     -211.13267      16362.534    
    999900   638.15665     -5489.3181      0             -5376.2267     -1805.8889      16360.25     
   1000000   602.95828     -5485.2946      0             -5378.4409      454.80641      16349.813    
Loop time of 1397.66 on 1024 procs for 1000000 steps with 1372 atoms

Performance: 61.818 ns/day, 0.388 hours/ns, 715.482 timesteps/s, 981.642 katom-step/s
98.4% CPU use with 32 MPI tasks x 32 OpenMP threads

MPI task timing breakdown:
Section |  min time  |  avg time  |  max time  |%varavg| %total
---------------------------------------------------------------
Pair    | 1044.8     | 1117       | 1186.5     | 107.9 | 79.92
Neigh   | 2.6393     | 2.9759     | 3.3143     |   9.1 |  0.21
Comm    | 69.114     | 131.89     | 202.43     | 294.6 |  9.44
Output  | 0.52048    | 0.52545    | 0.58547    |   1.5 |  0.04
Modify  | 125.97     | 138.01     | 164.8      | 109.3 |  9.87
Other   |            | 7.241      |            |       |  0.52

Nlocal:         42.875 ave          56 max          33 min
Histogram: 2 2 3 8 6 5 3 1 1 1
Nghost:        586.031 ave         605 max         551 min
Histogram: 1 1 1 1 3 4 5 5 8 3
Neighs:        1194.62 ave        1520 max         901 min
Histogram: 2 2 2 5 6 8 3 1 2 1
FullNghs:      2389.25 ave        3105 max        1836 min
Histogram: 2 2 4 5 7 6 3 1 1 1

Total # of neighbors = 76456
Ave neighs/atom = 55.725948
Neighbor list builds = 33729
Dangerous builds = 0
Total wall time: 0:23:32
