ITEM: TIMESTEP
0
ITEM: NUMBER OF ATOMS
1024
ITEM: BOX BOUNDS pp pp pp
-1.2105291172759411e+01 1.2105291172759411e+01
-1.2105291172759411e+01 1.2105291172759411e+01
-1.2105291172759411e+01 1.2105291172759411e+01
ITEM: ATOMS id type xs ys zs
2 1 0.0831718 0.0625 0.0625
1 1 0.0255567 8.07082e-16 3.08159e-15
4 1 0.191633 0.0625 0.0625
27 1 0.137024 0.125 0.125
19 1 0.137024 4.62238e-15 0.125
6 1 0.300476 0.0625 0.0625
8 1 0.411943 0.0625 0.0625
537 2 0.462234 0.125 0.125
513 2 0.462234 8.07082e-16 1.68754e-15
10 1 0.0831718 0.1875 0.0625
129 1 0.0255567 0.25 1.46742e-15
12 1 0.191633 0.1875 0.0625
131 1 0.137024 0.25 1.76091e-15
11 1 0.137024 0.125 6.23654e-15
13 1 0.245867 0.125 3.00821e-15
14 1 0.300476 0.1875 0.0625
641 2 0.462234 0.25 3.3017e-15
16 1 0.411943 0.1875 0.0625
18 1 0.0831718 0.0625 0.1875
17 1 0.0255567 2.86147e-15 0.125
33 1 0.0255567 2.93484e-16 0.25
20 1 0.191633 0.0625 0.1875
29 1 0.245867 0.125 0.125
21 1 0.245867 1.32068e-15 0.125
31 1 0.354328 0.125 0.125
22 1 0.300476 0.0625 0.1875
23 1 0.354328 5.06261e-15 0.125
24 1 0.411943 0.0625 0.1875
553 2 0.462234 0.125 0.25
26 1 0.0831718 0.1875 0.1875
25 1 0.0255567 0.125 0.125
161 1 0.0255567 0.25 0.25
28 1 0.191633 0.1875 0.1875
43 1 0.137024 0.125 0.25
30 1 0.300476 0.1875 0.1875
47 1 0.354328 0.125 0.25
32 1 0.411943 0.1875 0.1875
657 2 0.462234 0.25 0.125
34 1 0.0831718 0.0625 0.3125
57 1 0.0255567 0.125 0.375
49 1 0.0255567 2.34787e-15 0.375
41 1 0.0255567 0.125 0.25
36 1 0.191633 0.0625 0.3125
53 1 0.245867 3.15496e-15 0.375
45 1 0.245867 0.125 0.25
55 1 0.354328 3.59518e-15 0.375
38 1 0.300476 0.0625 0.3125
63 1 0.354328 0.125 0.375
40 1 0.411943 0.0625 0.3125
569 2 0.462234 0.125 0.375
545 2 0.462234 3.52181e-15 0.25
42 1 0.0831718 0.1875 0.3125
44 1 0.191633 0.1875 0.3125
165 1 0.245867 0.25 0.25
46 1 0.300476 0.1875 0.3125
167 1 0.354328 0.25 0.25
48 1 0.411943 0.1875 0.3125
50 1 0.0831718 0.0625 0.4375
59 1 0.137024 0.125 0.375
61 1 0.245867 0.125 0.375
52 1 0.191633 0.0625 0.4375
51 1 0.137024 2.20113e-15 0.375
54 1 0.300476 0.0625 0.4375
56 1 0.411943 0.0625 0.4375
58 1 0.0831718 0.1875 0.4375
73 1 0.0255567 0.125 0.5
60 1 0.191633 0.1875 0.4375
197 1 0.245867 0.25 0.5
62 1 0.300476 0.1875 0.4375
64 1 0.411943 0.1875 0.4375
66 1 0.0831718 0.0625 0.5625
89 1 0.0255567 0.125 0.625
65 1 0.0255567 8.07082e-16 0.5
83 1 0.137024 3.74193e-15 0.625
68 1 0.191633 0.0625 0.5625
93 1 0.245867 0.125 0.625
70 1 0.300476 0.0625 0.5625
95 1 0.354328 0.125 0.625
87 1 0.354328 4.40227e-15 0.625
79 1 0.354328 0.125 0.5
72 1 0.411943 0.0625 0.5625
593 2 0.462234 4.84249e-15 0.625
577 2 0.462234 1.68754e-15 0.5
74 1 0.0831718 0.1875 0.5625
76 1 0.191633 0.1875 0.5625
77 1 0.245867 0.125 0.5
75 1 0.137024 0.125 0.5
195 1 0.137024 0.25 0.5
78 1 0.300476 0.1875 0.5625
80 1 0.411943 0.1875 0.5625
585 2 0.462234 0.125 0.5
82 1 0.0831718 0.0625 0.6875
97 1 0.0255567 3.8153e-15 0.75
91 1 0.137024 0.125 0.625
84 1 0.191633 0.0625 0.6875
85 1 0.245867 8.07082e-15 0.625
86 1 0.300476 0.0625 0.6875
88 1 0.411943 0.0625 0.6875
617 2 0.462234 0.125 0.75
90 1 0.0831718 0.1875 0.6875
92 1 0.191633 0.1875 0.6875
109 1 0.245867 0.125 0.75
94 1 0.300476 0.1875 0.6875
601 2 0.462234 0.125 0.625
96 1 0.411943 0.1875 0.6875
98 1 0.0831718 0.0625 0.8125
113 1 0.0255567 3.00821e-15 0.875
115 1 0.137024 6.23654e-15 0.875
100 1 0.191633 0.0625 0.8125
123 1 0.137024 0.125 0.875
101 1 0.245867 3.66855e-16 0.75
117 1 0.245867 2.93484e-15 0.875
102 1 0.300476 0.0625 0.8125
127 1 0.354328 0.125 0.875
111 1 0.354328 0.125 0.75
119 1 0.354328 3.3017e-15 0.875
633 2 0.462234 0.125 0.875
104 1 0.411943 0.0625 0.8125
625 2 0.462234 2.7881e-15 0.875
609 2 0.462234 2.7881e-15 0.75
106 1 0.0831718 0.1875 0.8125
241 1 0.0255567 0.25 0.875
105 1 0.0255567 0.125 0.75
108 1 0.191633 0.1875 0.8125
229 1 0.245867 0.25 0.75
107 1 0.137024 0.125 0.75
110 1 0.300476 0.1875 0.8125
112 1 0.411943 0.1875 0.8125
114 1 0.0831718 0.0625 0.9375
9 1 0.0255567 0.125 1
125 1 0.245867 0.125 0.875
116 1 0.191633 0.0625 0.9375
3 1 0.137024 9.53824e-16 1
118 1 0.300476 0.0625 0.9375
15 1 0.354328 0.125 1
120 1 0.411943 0.0625 0.9375
521 2 0.462234 0.125 1
122 1 0.0831718 0.1875 0.9375
121 1 0.0255567 0.125 0.875
124 1 0.191633 0.1875 0.9375
133 1 0.245867 0.25 1
126 1 0.300476 0.1875 0.9375
128 1 0.411943 0.1875 0.9375
130 1 0.0831718 0.3125 0.0625
145 1 0.0255567 0.25 0.125
149 1 0.245867 0.25 0.125
132 1 0.191633 0.3125 0.0625
157 1 0.245867 0.375 0.125
147 1 0.137024 0.25 0.125
134 1 0.300476 0.3125 0.0625
135 1 0.354328 0.25 1.61416e-15
665 2 0.462234 0.375 0.125
136 1 0.411943 0.3125 0.0625
138 1 0.0831718 0.4375 0.0625
137 1 0.0255567 0.375 1.17394e-15
140 1 0.191633 0.4375 0.0625
139 1 0.137024 0.375 4.40227e-16
261 1 0.245867 0.5 6.16317e-15
159 1 0.354328 0.375 0.125
142 1 0.300476 0.4375 0.0625
143 1 0.354328 0.375 3.8153e-15
144 1 0.411943 0.4375 0.0625
153 1 0.0255567 0.375 0.125
146 1 0.0831718 0.3125 0.1875
148 1 0.191633 0.3125 0.1875
151 1 0.354328 0.25 0.125
150 1 0.300476 0.3125 0.1875
175 1 0.354328 0.375 0.25
152 1 0.411943 0.3125 0.1875
154 1 0.0831718 0.4375 0.1875
289 1 0.0255567 0.5 0.25
156 1 0.191633 0.4375 0.1875
155 1 0.137024 0.375 0.125
171 1 0.137024 0.375 0.25
158 1 0.300476 0.4375 0.1875
160 1 0.411943 0.4375 0.1875
162 1 0.0831718 0.3125 0.3125
185 1 0.0255567 0.375 0.375
164 1 0.191633 0.3125 0.3125
179 1 0.137024 0.25 0.375
163 1 0.137024 0.25 0.25
166 1 0.300476 0.3125 0.3125
183 1 0.354328 0.25 0.375
168 1 0.411943 0.3125 0.3125
673 2 0.462234 0.25 0.25
170 1 0.0831718 0.4375 0.3125
169 1 0.0255567 0.375 0.25
172 1 0.191633 0.4375 0.3125
173 1 0.245867 0.375 0.25
293 1 0.245867 0.5 0.25
174 1 0.300476 0.4375 0.3125
176 1 0.411943 0.4375 0.3125
681 2 0.462234 0.375 0.25
178 1 0.0831718 0.3125 0.4375
177 1 0.0255567 0.25 0.375
187 1 0.137024 0.375 0.375
189 1 0.245867 0.375 0.375
180 1 0.191633 0.3125 0.4375
181 1 0.245867 0.25 0.375
191 1 0.354328 0.375 0.375
182 1 0.300476 0.3125 0.4375
207 1 0.354328 0.375 0.5
184 1 0.411943 0.3125 0.4375
689 2 0.462234 0.25 0.375
186 1 0.0831718 0.4375 0.4375
188 1 0.191633 0.4375 0.4375
325 1 0.245867 0.5 0.5
203 1 0.137024 0.375 0.5
190 1 0.300476 0.4375 0.4375
697 2 0.462234 0.375 0.375
192 1 0.411943 0.4375 0.4375
217 1 0.0255567 0.375 0.625
194 1 0.0831718 0.3125 0.5625
193 1 0.0255567 0.25 0.5
196 1 0.191633 0.3125 0.5625
213 1 0.245867 0.25 0.625
198 1 0.300476 0.3125 0.5625
223 1 0.354328 0.375 0.625
215 1 0.354328 0.25 0.625
199 1 0.354328 0.25 0.5
200 1 0.411943 0.3125 0.5625
705 2 0.462234 0.25 0.5
713 2 0.462234 0.375 0.5
202 1 0.0831718 0.4375 0.5625
321 1 0.0255567 0.5 0.5
201 1 0.0255567 0.375 0.5
204 1 0.191633 0.4375 0.5625
323 1 0.137024 0.5 0.5
205 1 0.245867 0.375 0.5
206 1 0.300476 0.4375 0.5625
327 1 0.354328 0.5 0.5
729 2 0.462234 0.375 0.625
208 1 0.411943 0.4375 0.5625
833 2 0.462234 0.5 0.5
210 1 0.0831718 0.3125 0.6875
233 1 0.0255567 0.375 0.75
209 1 0.0255567 0.25 0.625
219 1 0.137024 0.375 0.625
221 1 0.245867 0.375 0.625
212 1 0.191633 0.3125 0.6875
211 1 0.137024 0.25 0.625
214 1 0.300476 0.3125 0.6875
231 1 0.354328 0.25 0.75
216 1 0.411943 0.3125 0.6875
745 2 0.462234 0.375 0.75
721 2 0.462234 0.25 0.625
218 1 0.0831718 0.4375 0.6875
337 1 0.0255567 0.5 0.625
220 1 0.191633 0.4375 0.6875
222 1 0.300476 0.4375 0.6875
343 1 0.354328 0.5 0.625
239 1 0.354328 0.375 0.75
224 1 0.411943 0.4375 0.6875
865 2 0.462234 0.5 0.75
226 1 0.0831718 0.3125 0.8125
225 1 0.0255567 0.25 0.75
228 1 0.191633 0.3125 0.8125
253 1 0.245867 0.375 0.875
251 1 0.137024 0.375 0.875
245 1 0.245867 0.25 0.875
243 1 0.137024 0.25 0.875
227 1 0.137024 0.25 0.75
230 1 0.300476 0.3125 0.8125
761 2 0.462234 0.375 0.875
232 1 0.411943 0.3125 0.8125
753 2 0.462234 0.25 0.875
737 2 0.462234 0.25 0.75
234 1 0.0831718 0.4375 0.8125
236 1 0.191633 0.4375 0.8125
357 1 0.245867 0.5 0.75
237 1 0.245867 0.375 0.75
371 1 0.137024 0.5 0.875
235 1 0.137024 0.375 0.75
355 1 0.137024 0.5 0.75
359 1 0.354328 0.5 0.75
238 1 0.300476 0.4375 0.8125
240 1 0.411943 0.4375 0.8125
249 1 0.0255567 0.375 0.875
242 1 0.0831718 0.3125 0.9375
244 1 0.191633 0.3125 0.9375
255 1 0.354328 0.375 0.875
247 1 0.354328 0.25 0.875
246 1 0.300476 0.3125 0.9375
248 1 0.411943 0.3125 0.9375
250 1 0.0831718 0.4375 0.9375
369 1 0.0255567 0.5 0.875
257 1 0.0255567 0.5 1
252 1 0.191633 0.4375 0.9375
141 1 0.245867 0.375 1
254 1 0.300476 0.4375 0.9375
256 1 0.411943 0.4375 0.9375
649 2 0.462234 0.375 1
258 1 0.0831718 0.5625 0.0625
273 1 0.0255567 0.5 0.125
260 1 0.191633 0.5625 0.0625
275 1 0.137024 0.5 0.125
259 1 0.137024 0.5 3.52181e-15
277 1 0.245867 0.5 0.125
269 1 0.245867 0.625 3.22833e-15
287 1 0.354328 0.625 0.125
262 1 0.300476 0.5625 0.0625
279 1 0.354328 0.5 0.125
264 1 0.411943 0.5625 0.0625
785 2 0.462234 0.5 0.125
769 2 0.462234 0.5 1.83428e-15
266 1 0.0831718 0.6875 0.0625
265 1 0.0255567 0.625 5.20935e-15
268 1 0.191633 0.6875 0.0625
387 1 0.137024 0.75 5.42946e-15
389 1 0.245867 0.75 7.33711e-16
270 1 0.300476 0.6875 0.0625
271 1 0.354328 0.625 2.34787e-15
391 1 0.354328 0.75 3.08159e-15
272 1 0.411943 0.6875 0.0625
913 2 0.462234 0.75 0.125
777 2 0.462234 0.625 1.17394e-15
281 1 0.0255567 0.625 0.125
274 1 0.0831718 0.5625 0.1875
285 1 0.245867 0.625 0.125
276 1 0.191633 0.5625 0.1875
283 1 0.137024 0.625 0.125
278 1 0.300476 0.5625 0.1875
793 2 0.462234 0.625 0.125
280 1 0.411943 0.5625 0.1875
282 1 0.0831718 0.6875 0.1875
284 1 0.191633 0.6875 0.1875
419 1 0.137024 0.75 0.25
286 1 0.300476 0.6875 0.1875
288 1 0.411943 0.6875 0.1875
290 1 0.0831718 0.5625 0.3125
313 1 0.0255567 0.625 0.375
297 1 0.0255567 0.625 0.25
292 1 0.191633 0.5625 0.3125
315 1 0.137024 0.625 0.375
307 1 0.137024 0.5 0.375
299 1 0.137024 0.625 0.25
291 1 0.137024 0.5 0.25
294 1 0.300476 0.5625 0.3125
319 1 0.354328 0.625 0.375
295 1 0.354328 0.5 0.25
296 1 0.411943 0.5625 0.3125
817 2 0.462234 0.5 0.375
801 2 0.462234 0.5 0.25
298 1 0.0831718 0.6875 0.3125
300 1 0.191633 0.6875 0.3125
301 1 0.245867 0.625 0.25
421 1 0.245867 0.75 0.25
302 1 0.300476 0.6875 0.3125
303 1 0.354328 0.625 0.25
423 1 0.354328 0.75 0.25
304 1 0.411943 0.6875 0.3125
809 2 0.462234 0.625 0.25
306 1 0.0831718 0.5625 0.4375
329 1 0.0255567 0.625 0.5
305 1 0.0255567 0.5 0.375
317 1 0.245867 0.625 0.375
308 1 0.191633 0.5625 0.4375
309 1 0.245867 0.5 0.375
310 1 0.300476 0.5625 0.4375
311 1 0.354328 0.5 0.375
825 2 0.462234 0.625 0.375
312 1 0.411943 0.5625 0.4375
314 1 0.0831718 0.6875 0.4375
316 1 0.191633 0.6875 0.4375
331 1 0.137024 0.625 0.5
318 1 0.300476 0.6875 0.4375
335 1 0.354328 0.625 0.5
320 1 0.411943 0.6875 0.4375
945 2 0.462234 0.75 0.375
322 1 0.0831718 0.5625 0.5625
345 1 0.0255567 0.625 0.625
324 1 0.191633 0.5625 0.5625
347 1 0.137024 0.625 0.625
341 1 0.245867 0.5 0.625
326 1 0.300476 0.5625 0.5625
351 1 0.354328 0.625 0.625
328 1 0.411943 0.5625 0.5625
849 2 0.462234 0.5 0.625
841 2 0.462234 0.625 0.5
330 1 0.0831718 0.6875 0.5625
332 1 0.191633 0.6875 0.5625
451 1 0.137024 0.75 0.5
333 1 0.245867 0.625 0.5
453 1 0.245867 0.75 0.5
334 1 0.300476 0.6875 0.5625
336 1 0.411943 0.6875 0.5625
961 2 0.462234 0.75 0.5
338 1 0.0831718 0.5625 0.6875
340 1 0.191633 0.5625 0.6875
339 1 0.137024 0.5 0.625
363 1 0.137024 0.625 0.75
342 1 0.300476 0.5625 0.6875
367 1 0.354328 0.625 0.75
344 1 0.411943 0.5625 0.6875
346 1 0.0831718 0.6875 0.6875
361 1 0.0255567 0.625 0.75
349 1 0.245867 0.625 0.625
348 1 0.191633 0.6875 0.6875
485 1 0.245867 0.75 0.75
350 1 0.300476 0.6875 0.6875
857 2 0.462234 0.625 0.625
352 1 0.411943 0.6875 0.6875
354 1 0.0831718 0.5625 0.8125
353 1 0.0255567 0.5 0.75
356 1 0.191633 0.5625 0.8125
381 1 0.245867 0.625 0.875
379 1 0.137024 0.625 0.875
358 1 0.300476 0.5625 0.8125
375 1 0.354328 0.5 0.875
889 2 0.462234 0.625 0.875
360 1 0.411943 0.5625 0.8125
881 2 0.462234 0.5 0.875
873 2 0.462234 0.625 0.75
481 1 0.0255567 0.75 0.75
362 1 0.0831718 0.6875 0.8125
364 1 0.191633 0.6875 0.8125
365 1 0.245867 0.625 0.75
483 1 0.137024 0.75 0.75
366 1 0.300476 0.6875 0.8125
368 1 0.411943 0.6875 0.8125
993 2 0.462234 0.75 0.75
370 1 0.0831718 0.5625 0.9375
373 1 0.245867 0.5 0.875
372 1 0.191633 0.5625 0.9375
267 1 0.137024 0.625 1
374 1 0.300476 0.5625 0.9375
263 1 0.354328 0.5 1
376 1 0.411943 0.5625 0.9375
378 1 0.0831718 0.6875 0.9375
377 1 0.0255567 0.625 0.875
380 1 0.191633 0.6875 0.9375
383 1 0.354328 0.625 0.875
382 1 0.300476 0.6875 0.9375
384 1 0.411943 0.6875 0.9375
401 1 0.0255567 0.75 0.125
386 1 0.0831718 0.8125 0.0625
393 1 0.0255567 0.875 4.54901e-15
405 1 0.245867 0.75 0.125
388 1 0.191633 0.8125 0.0625
411 1 0.137024 0.875 0.125
395 1 0.137024 0.875 2.7881e-15
403 1 0.137024 0.75 0.125
390 1 0.300476 0.8125 0.0625
407 1 0.354328 0.75 0.125
399 1 0.354328 0.875 2.20113e-15
392 1 0.411943 0.8125 0.0625
394 1 0.0831718 0.9375 0.0625
396 1 0.191633 0.9375 0.0625
5 1 0.245867 1 6.6034e-16
397 1 0.245867 0.875 2.20113e-15
398 1 0.300476 0.9375 0.0625
415 1 0.354328 0.875 0.125
7 1 0.354328 1 8.80453e-16
400 1 0.411943 0.9375 0.0625
402 1 0.0831718 0.8125 0.1875
409 1 0.0255567 0.875 0.125
413 1 0.245867 0.875 0.125
404 1 0.191633 0.8125 0.1875
406 1 0.300476 0.8125 0.1875
921 2 0.462234 0.875 0.125
408 1 0.411943 0.8125 0.1875
929 2 0.462234 0.75 0.25
410 1 0.0831718 0.9375 0.1875
412 1 0.191633 0.9375 0.1875
414 1 0.300476 0.9375 0.1875
431 1 0.354328 0.875 0.25
416 1 0.411943 0.9375 0.1875
529 2 0.462234 1 0.125
418 1 0.0831718 0.8125 0.3125
433 1 0.0255567 0.75 0.375
417 1 0.0255567 0.75 0.25
425 1 0.0255567 0.875 0.25
420 1 0.191633 0.8125 0.3125
443 1 0.137024 0.875 0.375
429 1 0.245867 0.875 0.25
435 1 0.137024 0.75 0.375
439 1 0.354328 0.75 0.375
422 1 0.300476 0.8125 0.3125
424 1 0.411943 0.8125 0.3125
426 1 0.0831718 0.9375 0.3125
441 1 0.0255567 0.875 0.375
428 1 0.191633 0.9375 0.3125
37 1 0.245867 1 0.25
35 1 0.137024 1 0.25
427 1 0.137024 0.875 0.25
447 1 0.354328 0.875 0.375
430 1 0.300476 0.9375 0.3125
39 1 0.354328 1 0.25
432 1 0.411943 0.9375 0.3125
561 2 0.462234 1 0.375
937 2 0.462234 0.875 0.25
434 1 0.0831718 0.8125 0.4375
437 1 0.245867 0.75 0.375
436 1 0.191633 0.8125 0.4375
461 1 0.245867 0.875 0.5
438 1 0.300476 0.8125 0.4375
455 1 0.354328 0.75 0.5
953 2 0.462234 0.875 0.375
440 1 0.411943 0.8125 0.4375
442 1 0.0831718 0.9375 0.4375
445 1 0.245867 0.875 0.375
444 1 0.191633 0.9375 0.4375
67 1 0.137024 1 0.5
459 1 0.137024 0.875 0.5
446 1 0.300476 0.9375 0.4375
71 1 0.354328 1 0.5
448 1 0.411943 0.9375 0.4375
450 1 0.0831718 0.8125 0.5625
449 1 0.0255567 0.75 0.5
452 1 0.191633 0.8125 0.5625
477 1 0.245867 0.875 0.625
469 1 0.245867 0.75 0.625
475 1 0.137024 0.875 0.625
467 1 0.137024 0.75 0.625
454 1 0.300476 0.8125 0.5625
479 1 0.354328 0.875 0.625
471 1 0.354328 0.75 0.625
456 1 0.411943 0.8125 0.5625
969 2 0.462234 0.875 0.5
458 1 0.0831718 0.9375 0.5625
473 1 0.0255567 0.875 0.625
457 1 0.0255567 0.875 0.5
460 1 0.191633 0.9375 0.5625
69 1 0.245867 1 0.5
462 1 0.300476 0.9375 0.5625
463 1 0.354328 0.875 0.5
985 2 0.462234 0.875 0.625
464 1 0.411943 0.9375 0.5625
466 1 0.0831718 0.8125 0.6875
465 1 0.0255567 0.75 0.625
468 1 0.191633 0.8125 0.6875
470 1 0.300476 0.8125 0.6875
472 1 0.411943 0.8125 0.6875
977 2 0.462234 0.75 0.625
474 1 0.0831718 0.9375 0.6875
81 1 0.0255567 1 0.625
476 1 0.191633 0.9375 0.6875
478 1 0.300476 0.9375 0.6875
103 1 0.354328 1 0.75
480 1 0.411943 0.9375 0.6875
482 1 0.0831718 0.8125 0.8125
505 1 0.0255567 0.875 0.875
501 1 0.245867 0.75 0.875
484 1 0.191633 0.8125 0.8125
509 1 0.245867 0.875 0.875
499 1 0.137024 0.75 0.875
493 1 0.245867 0.875 0.75
491 1 0.137024 0.875 0.75
503 1 0.354328 0.75 0.875
486 1 0.300476 0.8125 0.8125
487 1 0.354328 0.75 0.75
488 1 0.411943 0.8125 0.8125
1001 2 0.462234 0.875 0.75
1009 2 0.462234 0.75 0.875
490 1 0.0831718 0.9375 0.8125
489 1 0.0255567 0.875 0.75
492 1 0.191633 0.9375 0.8125
99 1 0.137024 1 0.75
494 1 0.300476 0.9375 0.8125
495 1 0.354328 0.875 0.75
1017 2 0.462234 0.875 0.875
496 1 0.411943 0.9375 0.8125
498 1 0.0831718 0.8125 0.9375
497 1 0.0255567 0.75 0.875
385 1 0.0255567 0.75 1
500 1 0.191633 0.8125 0.9375
511 1 0.354328 0.875 0.875
502 1 0.300476 0.8125 0.9375
504 1 0.411943 0.8125 0.9375
897 2 0.462234 0.75 1
506 1 0.0831718 0.9375 0.9375
507 1 0.137024 0.875 0.875
508 1 0.191633 0.9375 0.9375
510 1 0.300476 0.9375 0.9375
512 1 0.411943 0.9375 0.9375
905 2 0.462234 0.875 1
514 2 0.531736 0.0625 0.0625
515 2 0.606682 3.22833e-15 1.83428e-15
516 2 0.681308 0.0625 0.0625
533 2 0.756192 3.22833e-15 0.125
518 2 0.830818 0.0625 0.0625
525 2 0.756192 0.125 3.66855e-15
517 2 0.756192 2.71473e-15 8.07082e-16
520 2 0.975266 0.0625 0.0625
519 2 0.905764 1.61416e-15 1.46742e-16
522 2 0.531736 0.1875 0.0625
523 2 0.606682 0.125 6.6034e-16
524 2 0.681308 0.1875 0.0625
526 2 0.830818 0.1875 0.0625
528 2 0.975266 0.1875 0.0625
527 2 0.905764 0.125 1.32068e-15
539 2 0.606682 0.125 0.125
530 2 0.531736 0.0625 0.1875
531 2 0.606682 3.74193e-15 0.125
547 2 0.606682 4.18215e-15 0.25
532 2 0.681308 0.0625 0.1875
534 2 0.830818 0.0625 0.1875
536 2 0.975266 0.0625 0.1875
538 2 0.531736 0.1875 0.1875
540 2 0.681308 0.1875 0.1875
542 2 0.830818 0.1875 0.1875
541 2 0.756192 0.125 0.125
557 2 0.756192 0.125 0.25
544 2 0.975266 0.1875 0.1875
543 2 0.905764 0.125 0.125
546 2 0.531736 0.0625 0.3125
563 2 0.606682 3.88867e-15 0.375
548 2 0.681308 0.0625 0.3125
550 2 0.830818 0.0625 0.3125
549 2 0.756192 4.03541e-15 0.25
552 2 0.975266 0.0625 0.3125
575 2 0.905764 0.125 0.375
559 2 0.905764 0.125 0.25
551 2 0.905764 8.80453e-16 0.25
554 2 0.531736 0.1875 0.3125
555 2 0.606682 0.125 0.25
556 2 0.681308 0.1875 0.3125
558 2 0.830818 0.1875 0.3125
677 2 0.756192 0.25 0.25
560 2 0.975266 0.1875 0.3125
695 2 0.905764 0.25 0.375
562 2 0.531736 0.0625 0.4375
564 2 0.681308 0.0625 0.4375
566 2 0.830818 0.0625 0.4375
565 2 0.756192 3.96204e-15 0.375
568 2 0.975266 0.0625 0.4375
567 2 0.905764 1.68754e-15 0.375
571 2 0.606682 0.125 0.375
570 2 0.531736 0.1875 0.4375
572 2 0.681308 0.1875 0.4375
574 2 0.830818 0.1875 0.4375
573 2 0.756192 0.125 0.375
576 2 0.975266 0.1875 0.4375
578 2 0.531736 0.0625 0.5625
595 2 0.606682 4.62238e-15 0.625
579 2 0.606682 4.76912e-15 0.5
587 2 0.606682 0.125 0.5
580 2 0.681308 0.0625 0.5625
582 2 0.830818 0.0625 0.5625
589 2 0.756192 0.125 0.5
597 2 0.756192 5.64957e-15 0.625
581 2 0.756192 2.05439e-15 0.5
584 2 0.975266 0.0625 0.5625
591 2 0.905764 0.125 0.5
583 2 0.905764 2.34787e-15 0.5
603 2 0.606682 0.125 0.625
586 2 0.531736 0.1875 0.5625
588 2 0.681308 0.1875 0.5625
605 2 0.756192 0.125 0.625
590 2 0.830818 0.1875 0.5625
592 2 0.975266 0.1875 0.5625
711 2 0.905764 0.25 0.5
594 2 0.531736 0.0625 0.6875
596 2 0.681308 0.0625 0.6875
598 2 0.830818 0.0625 0.6875
621 2 0.756192 0.125 0.75
607 2 0.905764 0.125 0.625
600 2 0.975266 0.0625 0.6875
602 2 0.531736 0.1875 0.6875
604 2 0.681308 0.1875 0.6875
606 2 0.830818 0.1875 0.6875
608 2 0.975266 0.1875 0.6875
610 2 0.531736 0.0625 0.8125
635 2 0.606682 0.125 0.875
619 2 0.606682 0.125 0.75
627 2 0.606682 4.69575e-15 0.875
611 2 0.606682 2.86147e-15 0.75
612 2 0.681308 0.0625 0.8125
614 2 0.830818 0.0625 0.8125
629 2 0.756192 3.37507e-15 0.875
637 2 0.756192 0.125 0.875
616 2 0.975266 0.0625 0.8125
639 2 0.905764 0.125 0.875
623 2 0.905764 0.125 0.75
618 2 0.531736 0.1875 0.8125
620 2 0.681308 0.1875 0.8125
622 2 0.830818 0.1875 0.8125
624 2 0.975266 0.1875 0.8125
626 2 0.531736 0.0625 0.9375
628 2 0.681308 0.0625 0.9375
630 2 0.830818 0.0625 0.9375
632 2 0.975266 0.0625 0.9375
631 2 0.905764 3.44844e-15 0.875
634 2 0.531736 0.1875 0.9375
636 2 0.681308 0.1875 0.9375
638 2 0.830818 0.1875 0.9375
640 2 0.975266 0.1875 0.9375
642 2 0.531736 0.3125 0.0625
659 2 0.606682 0.25 0.125
643 2 0.606682 0.25 2.71473e-15
644 2 0.681308 0.3125 0.0625
646 2 0.830818 0.3125 0.0625
669 2 0.756192 0.375 0.125
645 2 0.756192 0.25 2.56799e-15
648 2 0.975266 0.3125 0.0625
663 2 0.905764 0.25 0.125
655 2 0.905764 0.375 1.76091e-15
647 2 0.905764 0.25 3.08159e-15
667 2 0.606682 0.375 0.125
650 2 0.531736 0.4375 0.0625
651 2 0.606682 0.375 2.64136e-15
652 2 0.681308 0.4375 0.0625
654 2 0.830818 0.4375 0.0625
653 2 0.756192 0.375 4.03541e-15
656 2 0.975266 0.4375 0.0625
658 2 0.531736 0.3125 0.1875
660 2 0.681308 0.3125 0.1875
662 2 0.830818 0.3125 0.1875
661 2 0.756192 0.25 0.125
664 2 0.975266 0.3125 0.1875
679 2 0.905764 0.25 0.25
666 2 0.531736 0.4375 0.1875
668 2 0.681308 0.4375 0.1875
670 2 0.830818 0.4375 0.1875
672 2 0.975266 0.4375 0.1875
671 2 0.905764 0.375 0.125
791 2 0.905764 0.5 0.125
687 2 0.905764 0.375 0.25
674 2 0.531736 0.3125 0.3125
675 2 0.606682 0.25 0.25
676 2 0.681308 0.3125 0.3125
678 2 0.830818 0.3125 0.3125
680 2 0.975266 0.3125 0.3125
682 2 0.531736 0.4375 0.3125
683 2 0.606682 0.375 0.25
684 2 0.681308 0.4375 0.3125
686 2 0.830818 0.4375 0.3125
685 2 0.756192 0.375 0.25
688 2 0.975266 0.4375 0.3125
691 2 0.606682 0.25 0.375
690 2 0.531736 0.3125 0.4375
692 2 0.681308 0.3125 0.4375
693 2 0.756192 0.25 0.375
694 2 0.830818 0.3125 0.4375
696 2 0.975266 0.3125 0.4375
699 2 0.606682 0.375 0.375
698 2 0.531736 0.4375 0.4375
700 2 0.681308 0.4375 0.4375
702 2 0.830818 0.4375 0.4375
701 2 0.756192 0.375 0.375
704 2 0.975266 0.4375 0.4375
703 2 0.905764 0.375 0.375
706 2 0.531736 0.3125 0.5625
723 2 0.606682 0.25 0.625
707 2 0.606682 0.25 0.5
708 2 0.681308 0.3125 0.5625
710 2 0.830818 0.3125 0.5625
725 2 0.756192 0.25 0.625
709 2 0.756192 0.25 0.5
712 2 0.975266 0.3125 0.5625
714 2 0.531736 0.4375 0.5625
731 2 0.606682 0.375 0.625
715 2 0.606682 0.375 0.5
716 2 0.681308 0.4375 0.5625
733 2 0.756192 0.375 0.625
718 2 0.830818 0.4375 0.5625
717 2 0.756192 0.375 0.5
720 2 0.975266 0.4375 0.5625
719 2 0.905764 0.375 0.5
722 2 0.531736 0.3125 0.6875
724 2 0.681308 0.3125 0.6875
726 2 0.830818 0.3125 0.6875
728 2 0.975266 0.3125 0.6875
735 2 0.905764 0.375 0.625
727 2 0.905764 0.25 0.625
730 2 0.531736 0.4375 0.6875
732 2 0.681308 0.4375 0.6875
734 2 0.830818 0.4375 0.6875
749 2 0.756192 0.375 0.75
736 2 0.975266 0.4375 0.6875
871 2 0.905764 0.5 0.75
738 2 0.531736 0.3125 0.8125
763 2 0.606682 0.375 0.875
755 2 0.606682 0.25 0.875
739 2 0.606682 0.25 0.75
740 2 0.681308 0.3125 0.8125
742 2 0.830818 0.3125 0.8125
741 2 0.756192 0.25 0.75
757 2 0.756192 0.25 0.875
744 2 0.975266 0.3125 0.8125
767 2 0.905764 0.375 0.875
743 2 0.905764 0.25 0.75
759 2 0.905764 0.25 0.875
746 2 0.531736 0.4375 0.8125
747 2 0.606682 0.375 0.75
748 2 0.681308 0.4375 0.8125
750 2 0.830818 0.4375 0.8125
765 2 0.756192 0.375 0.875
752 2 0.975266 0.4375 0.8125
751 2 0.905764 0.375 0.75
754 2 0.531736 0.3125 0.9375
756 2 0.681308 0.3125 0.9375
758 2 0.830818 0.3125 0.9375
760 2 0.975266 0.3125 0.9375
762 2 0.531736 0.4375 0.9375
764 2 0.681308 0.4375 0.9375
766 2 0.830818 0.4375 0.9375
768 2 0.975266 0.4375 0.9375
770 2 0.531736 0.5625 0.0625
795 2 0.606682 0.625 0.125
787 2 0.606682 0.5 0.125
771 2 0.606682 0.5 2.2745e-15
772 2 0.681308 0.5625 0.0625
774 2 0.830818 0.5625 0.0625
781 2 0.756192 0.625 9.53824e-16
789 2 0.756192 0.5 0.125
797 2 0.756192 0.625 0.125
773 2 0.756192 0.5 3.66855e-16
776 2 0.975266 0.5625 0.0625
783 2 0.905764 0.625 6.6034e-16
775 2 0.905764 0.5 1.61416e-15
778 2 0.531736 0.6875 0.0625
780 2 0.681308 0.6875 0.0625
782 2 0.830818 0.6875 0.0625
901 2 0.756192 0.75 4.47564e-15
784 2 0.975266 0.6875 0.0625
786 2 0.531736 0.5625 0.1875
788 2 0.681308 0.5625 0.1875
790 2 0.830818 0.5625 0.1875
799 2 0.905764 0.625 0.125
792 2 0.975266 0.5625 0.1875
794 2 0.531736 0.6875 0.1875
796 2 0.681308 0.6875 0.1875
798 2 0.830818 0.6875 0.1875
800 2 0.975266 0.6875 0.1875
802 2 0.531736 0.5625 0.3125
811 2 0.606682 0.625 0.25
803 2 0.606682 0.5 0.25
804 2 0.681308 0.5625 0.3125
806 2 0.830818 0.5625 0.3125
821 2 0.756192 0.5 0.375
813 2 0.756192 0.625 0.25
805 2 0.756192 0.5 0.25
808 2 0.975266 0.5625 0.3125
831 2 0.905764 0.625 0.375
815 2 0.905764 0.625 0.25
807 2 0.905764 0.5 0.25
810 2 0.531736 0.6875 0.3125
812 2 0.681308 0.6875 0.3125
814 2 0.830818 0.6875 0.3125
816 2 0.975266 0.6875 0.3125
827 2 0.606682 0.625 0.375
818 2 0.531736 0.5625 0.4375
819 2 0.606682 0.5 0.375
820 2 0.681308 0.5625 0.4375
822 2 0.830818 0.5625 0.4375
829 2 0.756192 0.625 0.375
824 2 0.975266 0.5625 0.4375
823 2 0.905764 0.5 0.375
826 2 0.531736 0.6875 0.4375
947 2 0.606682 0.75 0.375
828 2 0.681308 0.6875 0.4375
830 2 0.830818 0.6875 0.4375
832 2 0.975266 0.6875 0.4375
834 2 0.531736 0.5625 0.5625
851 2 0.606682 0.5 0.625
843 2 0.606682 0.625 0.5
835 2 0.606682 0.5 0.5
836 2 0.681308 0.5625 0.5625
838 2 0.830818 0.5625 0.5625
861 2 0.756192 0.625 0.625
853 2 0.756192 0.5 0.625
845 2 0.756192 0.625 0.5
837 2 0.756192 0.5 0.5
840 2 0.975266 0.5625 0.5625
855 2 0.905764 0.5 0.625
847 2 0.905764 0.625 0.5
839 2 0.905764 0.5 0.5
842 2 0.531736 0.6875 0.5625
963 2 0.606682 0.75 0.5
979 2 0.606682 0.75 0.625
844 2 0.681308 0.6875 0.5625
846 2 0.830818 0.6875 0.5625
981 2 0.756192 0.75 0.625
848 2 0.975266 0.6875 0.5625
859 2 0.606682 0.625 0.625
850 2 0.531736 0.5625 0.6875
867 2 0.606682 0.5 0.75
852 2 0.681308 0.5625 0.6875
854 2 0.830818 0.5625 0.6875
863 2 0.905764 0.625 0.625
856 2 0.975266 0.5625 0.6875
858 2 0.531736 0.6875 0.6875
860 2 0.681308 0.6875 0.6875
862 2 0.830818 0.6875 0.6875
997 2 0.756192 0.75 0.75
864 2 0.975266 0.6875 0.6875
983 2 0.905764 0.75 0.625
879 2 0.905764 0.625 0.75
866 2 0.531736 0.5625 0.8125
891 2 0.606682 0.625 0.875
883 2 0.606682 0.5 0.875
875 2 0.606682 0.625 0.75
868 2 0.681308 0.5625 0.8125
870 2 0.830818 0.5625 0.8125
893 2 0.756192 0.625 0.875
877 2 0.756192 0.625 0.75
869 2 0.756192 0.5 0.75
885 2 0.756192 0.5 0.875
872 2 0.975266 0.5625 0.8125
887 2 0.905764 0.5 0.875
874 2 0.531736 0.6875 0.8125
1011 2 0.606682 0.75 0.875
876 2 0.681308 0.6875 0.8125
878 2 0.830818 0.6875 0.8125
895 2 0.905764 0.625 0.875
880 2 0.975266 0.6875 0.8125
1015 2 0.905764 0.75 0.875
882 2 0.531736 0.5625 0.9375
779 2 0.606682 0.625 1
884 2 0.681308 0.5625 0.9375
886 2 0.830818 0.5625 0.9375
888 2 0.975266 0.5625 0.9375
890 2 0.531736 0.6875 0.9375
892 2 0.681308 0.6875 0.9375
1013 2 0.756192 0.75 0.875
894 2 0.830818 0.6875 0.9375
896 2 0.975266 0.6875 0.9375
898 2 0.531736 0.8125 0.0625
915 2 0.606682 0.75 0.125
899 2 0.606682 0.75 4.18215e-15
900 2 0.681308 0.8125 0.0625
902 2 0.830818 0.8125 0.0625
925 2 0.756192 0.875 0.125
909 2 0.756192 0.875 4.25552e-15
917 2 0.756192 0.75 0.125
904 2 0.975266 0.8125 0.0625
927 2 0.905764 0.875 0.125
923 2 0.606682 0.875 0.125
906 2 0.531736 0.9375 0.0625
907 2 0.606682 0.875 2.20113e-16
908 2 0.681308 0.9375 0.0625
910 2 0.830818 0.9375 0.0625
912 2 0.975266 0.9375 0.0625
535 2 0.905764 1 0.125
914 2 0.531736 0.8125 0.1875
916 2 0.681308 0.8125 0.1875
918 2 0.830818 0.8125 0.1875
919 2 0.905764 0.75 0.125
920 2 0.975266 0.8125 0.1875
922 2 0.531736 0.9375 0.1875
924 2 0.681308 0.9375 0.1875
926 2 0.830818 0.9375 0.1875
928 2 0.975266 0.9375 0.1875
930 2 0.531736 0.8125 0.3125
931 2 0.606682 0.75 0.25
932 2 0.681308 0.8125 0.3125
934 2 0.830818 0.8125 0.3125
941 2 0.756192 0.875 0.25
933 2 0.756192 0.75 0.25
936 2 0.975266 0.8125 0.3125
959 2 0.905764 0.875 0.375
943 2 0.905764 0.875 0.25
935 2 0.905764 0.75 0.25
938 2 0.531736 0.9375 0.3125
939 2 0.606682 0.875 0.25
940 2 0.681308 0.9375 0.3125
942 2 0.830818 0.9375 0.3125
944 2 0.975266 0.9375 0.3125
955 2 0.606682 0.875 0.375
946 2 0.531736 0.8125 0.4375
948 2 0.681308 0.8125 0.4375
957 2 0.756192 0.875 0.375
950 2 0.830818 0.8125 0.4375
949 2 0.756192 0.75 0.375
952 2 0.975266 0.8125 0.4375
951 2 0.905764 0.75 0.375
954 2 0.531736 0.9375 0.4375
956 2 0.681308 0.9375 0.4375
958 2 0.830818 0.9375 0.4375
960 2 0.975266 0.9375 0.4375
962 2 0.531736 0.8125 0.5625
987 2 0.606682 0.875 0.625
971 2 0.606682 0.875 0.5
964 2 0.681308 0.8125 0.5625
966 2 0.830818 0.8125 0.5625
989 2 0.756192 0.875 0.625
965 2 0.756192 0.75 0.5
973 2 0.756192 0.875 0.5
968 2 0.975266 0.8125 0.5625
991 2 0.905764 0.875 0.625
967 2 0.905764 0.75 0.5
970 2 0.531736 0.9375 0.5625
972 2 0.681308 0.9375 0.5625
974 2 0.830818 0.9375 0.5625
976 2 0.975266 0.9375 0.5625
599 2 0.905764 1 0.625
975 2 0.905764 0.875 0.5
978 2 0.531736 0.8125 0.6875
980 2 0.681308 0.8125 0.6875
982 2 0.830818 0.8125 0.6875
984 2 0.975266 0.8125 0.6875
986 2 0.531736 0.9375 0.6875
988 2 0.681308 0.9375 0.6875
990 2 0.830818 0.9375 0.6875
992 2 0.975266 0.9375 0.6875
994 2 0.531736 0.8125 0.8125
1019 2 0.606682 0.875 0.875
995 2 0.606682 0.75 0.75
1003 2 0.606682 0.875 0.75
996 2 0.681308 0.8125 0.8125
998 2 0.830818 0.8125 0.8125
1021 2 0.756192 0.875 0.875
1000 2 0.975266 0.8125 0.8125
999 2 0.905764 0.75 0.75
1007 2 0.905764 0.875 0.75
1002 2 0.531736 0.9375 0.8125
1004 2 0.681308 0.9375 0.8125
613 2 0.756192 1 0.75
1006 2 0.830818 0.9375 0.8125
1005 2 0.756192 0.875 0.75
1008 2 0.975266 0.9375 0.8125
615 2 0.905764 1 0.75
1010 2 0.531736 0.8125 0.9375
1012 2 0.681308 0.8125 0.9375
1014 2 0.830818 0.8125 0.9375
1016 2 0.975266 0.8125 0.9375
1023 2 0.905764 0.875 0.875
903 2 0.905764 0.75 1
911 2 0.905764 0.875 1
1018 2 0.531736 0.9375 0.9375
1020 2 0.681308 0.9375 0.9375
1022 2 0.830818 0.9375 0.9375
1024 2 0.975266 0.9375 0.9375
ITEM: TIMESTEP
1000
ITEM: NUMBER OF ATOMS
1024
ITEM: BOX BOUNDS pp pp pp
-1.2105290289177994e+01 1.2105290289177994e+01
-1.2105290289177994e+01 1.2105290289177994e+01
-1.2105290289177994e+01 1.2105290289177994e+01
ITEM: ATOMS id type xs ys zs
2 1 0.0831716 0.0625 0.0625
1 1 0.0255565 -2.28447e-09 -2.27999e-09
4 1 0.191633 0.0625 0.0625
27 1 0.137024 0.125 0.125
19 1 0.137024 -2.26803e-09 0.125
6 1 0.300476 0.0625 0.0625
8 1 0.411944 0.0625 0.0625
537 2 0.462234 0.125 0.125
513 2 0.462234 -2.28257e-09 -2.28053e-09
10 1 0.0831716 0.1875 0.0625
129 1 0.0255565 0.25 -2.28002e-09
12 1 0.191633 0.1875 0.0625
131 1 0.137024 0.25 -2.27747e-09
11 1 0.137024 0.125 -2.28454e-09
13 1 0.245867 0.125 -2.28515e-09
14 1 0.300476 0.1875 0.0625
641 2 0.462234 0.25 -2.28055e-09
16 1 0.411944 0.1875 0.0625
18 1 0.0831716 0.0625 0.1875
17 1 0.0255565 -2.2775e-09 0.125
33 1 0.0255565 -2.28445e-09 0.25
20 1 0.191633 0.0625 0.1875
29 1 0.245867 0.125 0.125
21 1 0.245867 -2.26569e-09 0.125
31 1 0.354328 0.125 0.125
22 1 0.300476 0.0625 0.1875
23 1 0.354328 -2.27189e-09 0.125
24 1 0.411944 0.0625 0.1875
553 2 0.462234 0.125 0.25