ITEM: TIMESTEP
10
ITEM: NUMBER OF ATOMS
1024
ITEM: BOX BOUNDS pp pp pp
-1.2280028814595074e+01 1.2280028814595074e+01
-1.2280028814595074e+01 1.2280028814595074e+01
-1.2280028814595074e+01 1.2280028814595074e+01
ITEM: ATOMS id type xs ys zs
2 1 0.0803598 0.0715814 0.0538084
17 1 0.0159218 0.00087296 0.116993
4 1 0.192917 0.0683214 0.0444953
21 1 0.238868 0.0122282 0.11068
19 1 0.139932 0.0120191 0.104179
6 1 0.297551 0.0728267 0.048133
23 1 0.341076 0.00379773 0.115125
8 1 0.403386 0.0631623 0.0558494
10 1 0.0804896 0.18459 0.0637988
129 1 0.0264142 0.246035 0.00363163
12 1 0.185799 0.182929 0.0704983
32 1 0.399933 0.18338 0.18633
14 1 0.292881 0.1818 0.0749527
133 2 0.248781 0.247502 0.00214078
135 1 0.357045 0.24244 0.011185
16 1 0.401761 0.180262 0.0735038
641 2 0.46295 0.240859 0.00793284
657 2 0.447546 0.243426 0.123747
25 1 0.0214663 0.117339 0.128148
41 1 0.0360434 0.121282 0.234941
18 1 0.0849368 0.0554192 0.177578
29 1 0.237496 0.114638 0.132517
27 1 0.13596 0.119651 0.134461
20 1 0.185931 0.0535052 0.194725
31 1 0.349019 0.113411 0.135854
22 1 0.293639 0.0596148 0.192293
537 2 0.450897 0.111972 0.131763
24 1 0.40687 0.0579071 0.203016
26 1 0.0920006 0.191586 0.179376
43 1 0.132415 0.142489 0.245039
45 1 0.236718 0.134138 0.238671
28 2 0.192479 0.196945 0.17105
30 1 0.296781 0.186279 0.183231
33 1 0.0152658 0.00571089 0.249927
34 1 0.0799455 0.0727756 0.301237
49 1 0.0226287 0.0105602 0.364654
569 2 0.452577 0.135201 0.390232
36 1 0.184781 0.0783098 0.305892
37 1 0.234341 0.00373061 0.26006
51 1 0.126584 0.016886 0.368043
53 1 0.243095 0.0121731 0.367835
55 1 0.344863 0.0151167 0.36868
38 1 0.291053 0.0738221 0.30662
39 1 0.344482 0.00240618 0.257522
40 1 0.40151 0.0777493 0.322674
42 1 0.0839465 0.18161 0.314904
161 1 0.0158032 0.24462 0.257634
177 1 0.0213091 0.247481 0.365396
163 1 0.137023 0.242171 0.258694
44 1 0.188784 0.178694 0.317896
165 1 0.23868 0.238859 0.261779
46 1 0.288228 0.183967 0.323955
167 1 0.347765 0.241765 0.257826
47 1 0.344029 0.131507 0.251319
48 1 0.395562 0.188737 0.323933
553 2 0.444287 0.12929 0.254027
673 2 0.450587 0.238986 0.258963
50 1 0.0812923 0.0583432 0.437058
52 1 0.189008 0.062276 0.437044
61 1 0.239655 0.125933 0.3826
63 1 0.341272 0.119909 0.394557
54 2 0.292046 0.0558094 0.453452
561 2 0.455381 0.00284264 0.384215
56 1 0.398836 0.0578618 0.449281
73 1 0.0266038 0.132655 0.499675
57 1 0.0262894 0.127991 0.380924
58 1 0.0773869 0.199567 0.432932
59 1 0.131493 0.132265 0.387564
75 1 0.140866 0.135531 0.483
60 1 0.192716 0.204243 0.428116
62 1 0.295958 0.200278 0.432057
77 1 0.242596 0.137433 0.491236
79 1 0.343874 0.127534 0.499383
64 1 0.394958 0.194529 0.44192
66 1 0.0866191 0.0729222 0.561419
81 1 0.0351811 0.0118901 0.619575
65 1 0.0295848 0.00382642 0.506347
68 1 0.190801 0.0822696 0.557383
83 2 0.141736 0.0158362 0.622056
85 1 0.233544 0.00859206 0.612613
70 1 0.291717 0.0589361 0.55549
72 1 0.391789 0.0572388 0.558467
74 1 0.092223 0.183068 0.566403
76 1 0.19756 0.176951 0.577328
195 1 0.13678 0.244831 0.506921
199 1 0.345299 0.246894 0.51249
78 1 0.29746 0.169535 0.574532
197 1 0.246378 0.237905 0.517384
705 2 0.438612 0.231993 0.518158
80 1 0.392937 0.174823 0.577182
721 2 0.454907 0.24988 0.618767
585 2 0.448532 0.130782 0.506759
89 1 0.0240382 0.117677 0.632562
82 1 0.0799125 0.0610083 0.701226
91 1 0.131538 0.119346 0.638562
93 1 0.237592 0.110384 0.636367
84 1 0.191163 0.0507431 0.695295
95 1 0.345196 0.105387 0.634193
86 1 0.288546 0.0534973 0.698734
593 2 0.446965 0.00910081 0.632109
601 2 0.44045 0.116791 0.636759
88 1 0.398497 0.0604224 0.705875
90 1 0.0880511 0.19553 0.686338
105 1 0.0207846 0.135356 0.738919
109 1 0.240131 0.137196 0.743372
107 1 0.133182 0.138917 0.745715
92 1 0.189208 0.196194 0.681714
96 1 0.394812 0.19458 0.69036
94 1 0.292135 0.192644 0.68009
98 1 0.0846496 0.0771555 0.809589
100 1 0.184124 0.071224 0.806787
115 1 0.132268 0.0121863 0.870224
117 1 0.237067 0.0109263 0.874561
102 1 0.290276 0.0740781 0.804641
119 1 0.343639 0.00926406 0.869593
104 1 0.407394 0.0723313 0.817216
106 1 0.0859584 0.18783 0.825997
225 1 0.03096 0.246042 0.756677
108 1 0.19 0.178597 0.821053
617 2 0.448918 0.125551 0.751501
227 1 0.13786 0.247118 0.764632
231 1 0.347316 0.242676 0.767124
110 1 0.292334 0.182839 0.822501
112 1 0.407341 0.187034 0.825837
114 2 0.080592 0.0579764 0.953908
121 1 0.0288012 0.125408 0.880072
113 1 0.0215902 0.0123461 0.875089
116 1 0.186064 0.0571167 0.947631
123 1 0.141906 0.115327 0.876627
125 1 0.245334 0.112203 0.889462
127 1 0.348111 0.125353 0.889926
118 1 0.290873 0.0507199 0.945589
633 2 0.461289 0.120945 0.883772
120 1 0.397593 0.0586092 0.936982
513 2 0.456627 0.00518332 0.988268
9 1 0.0290353 0.133642 0.996678
122 1 0.0791509 0.19226 0.931943
124 1 0.187313 0.193831 0.920378
11 1 0.138523 0.136694 0.989864
126 1 0.29332 0.200818 0.928017
13 1 0.244116 0.145235 0.993135
15 1 0.35033 0.1422 0.994633
128 1 0.409125 0.201265 0.926366
521 2 0.449691 0.138035 0.990109
131 1 0.138041 0.249212 0.999284
111 1 0.345363 0.138397 0.750019
130 1 0.0785827 0.317785 0.0509556
145 1 0.0228488 0.252814 0.12306
132 1 0.184043 0.317115 0.0545148
149 1 0.235637 0.264154 0.111869
147 1 0.131357 0.260423 0.112913
134 1 0.30543 0.317151 0.0516981
136 1 0.410826 0.316361 0.0708826
649 2 0.458896 0.376371 0.00566292
138 1 0.0927314 0.434605 0.0718041
257 1 0.0348506 0.492739 0.0148237
273 1 0.0226266 0.496467 0.116884
140 1 0.192874 0.43171 0.0723001
259 1 0.145678 0.495444 0.0172029
263 1 0.352412 0.490564 0.0108778
142 1 0.295684 0.4272 0.0731163
261 1 0.248672 0.495628 0.00375355
769 2 0.46112 0.489377 0.00743694
144 1 0.400041 0.432055 0.0776814
146 1 0.0801473 0.294213 0.190382
153 1 0.0306132 0.369134 0.136881
157 1 0.236017 0.364873 0.136063
148 1 0.18695 0.301937 0.197814
155 1 0.135089 0.367661 0.131113
151 1 0.345161 0.26065 0.12847
159 1 0.347825 0.366673 0.132106
150 1 0.289599 0.309303 0.19659
665 2 0.468095 0.375457 0.133641
152 1 0.408428 0.309297 0.192306
154 1 0.0787412 0.447804 0.177007
169 1 0.0244026 0.384972 0.23931
171 1 0.133142 0.379 0.2373
156 1 0.179212 0.448363 0.178991
173 1 0.23605 0.385106 0.239753
175 1 0.345149 0.38395 0.242873
158 1 0.298775 0.438789 0.174449
160 1 0.405876 0.44002 0.191181
289 1 0.0281269 0.497007 0.249898
137 1 0.024678 0.38236 0.00217639
162 1 0.0813985 0.323318 0.312439
164 1 0.190168 0.325402 0.304075
179 1 0.13364 0.253595 0.367264
181 1 0.234373 0.264462 0.371015
166 1 0.297863 0.327287 0.306954
183 1 0.34469 0.266452 0.370502
681 2 0.457887 0.369601 0.253055
168 1 0.401661 0.307002 0.30709
170 1 0.0868983 0.428618 0.314104
689 2 0.451017 0.250303 0.377098
291 1 0.133725 0.499597 0.259521
172 1 0.182809 0.429116 0.321312
293 1 0.242587 0.486789 0.253197
174 1 0.292753 0.436333 0.324956
176 1 0.398775 0.430773 0.3078
185 1 0.0188424 0.373797 0.385065
178 1 0.0800714 0.30505 0.435365
180 1 0.186345 0.312526 0.453999
187 1 0.131396 0.367393 0.384626
189 1 0.247015 0.370336 0.381509
182 1 0.290762 0.301811 0.451928
697 2 0.448103 0.37559 0.377903
184 1 0.406928 0.306451 0.440653
201 1 0.0289314 0.378257 0.493184
186 1 0.0809646 0.452043 0.428904
188 1 0.186112 0.447336 0.429132
203 1 0.12856 0.38578 0.494733
205 1 0.243294 0.381146 0.491694
191 1 0.344538 0.379207 0.383347
190 1 0.284334 0.454401 0.430851
207 1 0.333998 0.387301 0.487536
192 1 0.4062 0.449213 0.431641
713 2 0.454985 0.379422 0.487601
194 1 0.0878615 0.324982 0.552563
209 1 0.0450263 0.260523 0.613907
193 2 0.0238508 0.256436 0.506643
196 1 0.194652 0.324177 0.55961
213 1 0.240279 0.26329 0.620708
211 1 0.142292 0.262921 0.623649
198 1 0.297038 0.325909 0.560978
215 1 0.342467 0.256918 0.612932
200 1 0.410607 0.327967 0.554844
202 1 0.0806282 0.426874 0.574749
321 1 0.0283928 0.491945 0.507776
337 1 0.024209 0.492493 0.625783
204 1 0.18339 0.433807 0.578159
325 1 0.236562 0.491025 0.513166
323 1 0.135449 0.490198 0.507139
206 1 0.298613 0.425737 0.566967
327 1 0.340315 0.498252 0.505284
208 1 0.399411 0.435208 0.56866
210 1 0.0882336 0.305747 0.705596
217 1 0.0233729 0.373636 0.638232
221 1 0.242234 0.370987 0.640195
219 1 0.133963 0.367353 0.632673
212 1 0.194552 0.303249 0.704369
223 2 0.344486 0.363465 0.632797
214 2 0.293794 0.298511 0.696215
745 2 0.451675 0.376778 0.748751
729 2 0.446311 0.361546 0.627378
216 1 0.408006 0.302763 0.69275
218 1 0.0849496 0.437531 0.681792
353 1 0.0141123 0.495692 0.746049
233 1 0.0259103 0.390463 0.745065
235 1 0.130479 0.380538 0.749744
237 1 0.24233 0.379977 0.743044
220 1 0.184207 0.441994 0.685204
239 1 0.349546 0.37578 0.743076
222 1 0.299701 0.444522 0.685325
224 1 0.397902 0.43515 0.680927
865 2 0.455435 0.498943 0.741741
226 2 0.0762631 0.316406 0.807665
241 1 0.0282335 0.258756 0.874399
228 1 0.193335 0.330173 0.80882
245 1 0.23465 0.2591 0.873847
243 1 0.130104 0.263531 0.871624
230 1 0.292992 0.32027 0.807855
247 1 0.345581 0.267616 0.867701
737 2 0.447166 0.251583 0.763344
232 1 0.402051 0.328157 0.822089
753 2 0.460675 0.258969 0.863513
234 1 0.0842811 0.435829 0.825959
236 1 0.19145 0.432276 0.827007
355 1 0.138289 0.489282 0.758126
238 1 0.300958 0.4294 0.822967
359 1 0.350035 0.490931 0.763647
357 1 0.243005 0.490121 0.756693
240 1 0.413206 0.431551 0.821897
249 1 0.0217605 0.363357 0.882436
242 1 0.0784502 0.318373 0.954303
251 1 0.130814 0.37124 0.887108
244 1 0.190856 0.317502 0.949667
253 1 0.246371 0.363288 0.887939
246 1 0.303634 0.309356 0.944753
255 1 0.349287 0.368654 0.890999
761 2 0.463795 0.368328 0.880289
248 1 0.416575 0.3113 0.949405
229 2 0.238417 0.250629 0.765933
250 1 0.0792972 0.440787 0.931064
252 1 0.193727 0.447399 0.933786
139 1 0.136905 0.386143 0.996535
254 1 0.301722 0.449253 0.927092
141 1 0.247146 0.384414 0.991649
143 1 0.34378 0.383784 0.990201
256 1 0.412022 0.438109 0.931297
258 1 0.0836236 0.566068 0.0528512
260 1 0.189268 0.572436 0.063026
275 1 0.130276 0.505027 0.116105
262 1 0.295403 0.579211 0.0532095
279 1 0.345903 0.518672 0.115272
277 1 0.245889 0.506603 0.114258
264 2 0.399292 0.571168 0.0493181
266 1 0.080283 0.683296 0.0668564
387 1 0.134034 0.736853 0.0147051
268 1 0.194382 0.679018 0.0671474
391 1 0.349921 0.746685 0.00195456
270 1 0.303116 0.683098 0.0678018
389 1 0.247109 0.746602 0.0156041
272 1 0.407591 0.687214 0.0684635
288 1 0.394251 0.697842 0.181585
274 1 0.083693 0.55587 0.187506
276 1 0.19092 0.555572 0.187791
285 1 0.242547 0.618626 0.135503
287 1 0.337925 0.62417 0.134014
278 1 0.290673 0.557347 0.192755
785 2 0.446297 0.505538 0.135322
280 1 0.394722 0.564472 0.195398
281 1 0.0249326 0.627897 0.12594
282 1 0.0761783 0.699273 0.181822
297 1 0.0289798 0.637515 0.237602
301 1 0.2376 0.644534 0.240343
283 1 0.137449 0.625759 0.134352
299 1 0.13605 0.635463 0.23441
284 1 0.18456 0.701399 0.175365
286 1 0.296163 0.713607 0.185733
303 1 0.333208 0.641893 0.233853
793 2 0.452594 0.626163 0.138324
290 1 0.0810117 0.574554 0.297535
305 1 0.0319992 0.513013 0.361993
292 1 0.184364 0.58119 0.295729
307 1 0.137164 0.515998 0.35962
309 1 0.231069 0.517276 0.358439
294 1 0.287217 0.573759 0.299802
295 2 0.350071 0.502918 0.257282
311 1 0.34321 0.517053 0.372081
296 1 0.394601 0.576081 0.308632
817 2 0.444809 0.51392 0.365107
825 2 0.454787 0.621086 0.375003
801 2 0.451422 0.511164 0.256389
298 1 0.082991 0.685936 0.318093
300 1 0.183054 0.686742 0.327683
841 1 0.453208 0.635646 0.496194
419 1 0.132885 0.745567 0.254274
302 1 0.292896 0.682593 0.322258
304 1 0.397747 0.689752 0.319098
809 2 0.44856 0.632071 0.255855
306 1 0.0880498 0.556074 0.446201
313 1 0.0218513 0.619865 0.380985
317 1 0.238887 0.620965 0.391363
308 1 0.189703 0.552638 0.442051
315 1 0.129281 0.62107 0.38417
319 1 0.339082 0.623682 0.382757
310 1 0.291126 0.55923 0.444203
312 1 0.399835 0.571653 0.447358
329 1 0.0221777 0.626989 0.497623
314 1 0.0798092 0.694926 0.429938
333 1 0.238887 0.632492 0.488418
331 1 0.135064 0.632859 0.48703
316 1 0.188193 0.698121 0.430066
335 1 0.342656 0.640377 0.483232
318 1 0.287151 0.697538 0.430366
455 1 0.345392 0.738388 0.496922
320 1 0.399988 0.686778 0.424925
322 1 0.0809307 0.56537 0.551977
324 1 0.18317 0.569795 0.556626
339 1 0.134124 0.508937 0.617481
341 1 0.232543 0.505298 0.619102
326 1 0.28587 0.578644 0.549865
343 1 0.341313 0.514426 0.618511
328 1 0.393714 0.578092 0.559094
849 2 0.44115 0.508159 0.618172
833 2 0.443271 0.508663 0.502696
330 1 0.0803124 0.677184 0.566214
449 1 0.0276702 0.749068 0.510376
332 1 0.175243 0.675318 0.572293
451 1 0.134148 0.748626 0.501331
453 1 0.235948 0.743263 0.513918
334 1 0.291157 0.679944 0.571123
336 1 0.397421 0.686387 0.567444
857 2 0.455344 0.636845 0.625332
993 2 0.443518 0.747712 0.749838
961 2 0.44478 0.739577 0.504805
361 1 0.0189086 0.617327 0.739447
345 1 0.0278012 0.622304 0.635351
338 2 0.085068 0.550826 0.698504
347 1 0.131853 0.617165 0.633948
340 1 0.189801 0.557237 0.692519
349 1 0.245547 0.619408 0.633008
351 1 0.341502 0.623217 0.637355
342 1 0.298495 0.55427 0.696184
344 1 0.404047 0.56795 0.689091
346 1 0.080263 0.693649 0.680638
363 1 0.130563 0.636987 0.742463
348 1 0.188364 0.695745 0.673799
350 1 0.28968 0.699551 0.677275
367 1 0.347192 0.637326 0.737022
365 1 0.241996 0.63605 0.738558
352 1 0.400975 0.692725 0.684271
354 1 0.0809708 0.566271 0.800243
369 1 0.0255826 0.5034 0.872303
356 1 0.19458 0.584257 0.80801
373 1 0.238813 0.510063 0.862281
371 1 0.142168 0.508894 0.875042
358 2 0.297315 0.575584 0.807575
889 2 0.462951 0.615877 0.876533
881 2 0.457511 0.507911 0.87216
360 1 0.40494 0.56331 0.799086
362 1 0.0812911 0.67897 0.817045
481 1 0.0159844 0.736773 0.756782
364 1 0.191258 0.680466 0.820932
485 1 0.24282 0.745782 0.75888
483 1 0.130415 0.743124 0.760836
487 1 0.346996 0.74654 0.758835
366 1 0.293306 0.677861 0.813504
368 1 0.405016 0.678129 0.825942
384 1 0.412922 0.694081 0.937333
370 1 0.0880489 0.548275 0.946396
377 1 0.0282764 0.613432 0.885141
265 1 0.0215919 0.621946 0.999556
379 1 0.141684 0.615481 0.889821
372 1 0.192392 0.556728 0.94936
267 1 0.142906 0.626651 0.993456
375 1 0.363792 0.50411 0.876739
383 1 0.355567 0.613945 0.884277
381 1 0.247466 0.615623 0.88591
374 1 0.303441 0.551828 0.940213
376 1 0.411442 0.555389 0.948238
385 1 0.0226831 0.737136 0.998868
378 1 0.0809317 0.683084 0.937112
497 1 0.0237046 0.740459 0.880227
380 1 0.191239 0.697814 0.940813
271 1 0.352397 0.638801 0.992472
269 1 0.252434 0.635546 0.988126
382 1 0.294871 0.700722 0.930966
777 2 0.461952 0.631128 0.999416
873 2 0.459452 0.629251 0.75242
386 1 0.0788516 0.808212 0.0441349
401 1 0.0296277 0.759603 0.115342
409 1 0.018817 0.868157 0.113762
388 1 0.186666 0.821547 0.0587497
403 1 0.125696 0.760841 0.11645
407 1 0.352529 0.761255 0.119488
405 1 0.244763 0.764393 0.121345
390 1 0.300767 0.818359 0.0551641
392 1 0.397718 0.825015 0.0504639
394 1 0.0737103 0.930021 0.0602588
396 1 0.175219 0.923258 0.0767818
3 1 0.13336 0.989694 0.0152866
5 2 0.231148 0.986272 0.00699727
398 1 0.286743 0.92933 0.0665291
7 1 0.336038 0.987853 0.0079882
400 1 0.403056 0.933474 0.0615256
905 2 0.458036 0.884468 7.38717e-05
402 1 0.0759554 0.806097 0.199196
413 1 0.237362 0.869004 0.127781
411 1 0.124082 0.864996 0.133392
404 2 0.187291 0.80975 0.19739
406 2 0.291079 0.817421 0.202477
913 2 0.446165 0.766466 0.137457
408 1 0.396807 0.818243 0.199739
410 1 0.078712 0.948733 0.175565
425 1 0.0315649 0.88851 0.243289
429 1 0.232484 0.88934 0.245471
427 1 0.127891 0.891039 0.240585
412 1 0.177885 0.940231 0.17741
431 1 0.3368 0.891137 0.246174
414 1 0.282192 0.959535 0.183607
415 1 0.340395 0.876535 0.126484
416 1 0.393785 0.935336 0.185241
529 2 0.447959 0.997181 0.131835
921 2 0.447891 0.875579 0.131933
418 1 0.0778828 0.813905 0.308234
441 1 0.0243306 0.877797 0.373555
417 1 0.0153439 0.75248 0.261146
420 1 0.181812 0.826275 0.306649
435 1 0.131906 0.76769 0.371708
422 1 0.289002 0.832553 0.311026
439 1 0.34331 0.755506 0.369991
423 1 0.338152 0.75673 0.262254
437 1 0.245267 0.763437 0.370482
424 1 0.385892 0.823471 0.31473
929 2 0.442274 0.751699 0.258933
426 1 0.0775514 0.936538 0.322287
428 1 0.178832 0.942176 0.320955
35 1 0.132883 0.99533 0.25768
430 1 0.282354 0.9378 0.32227
937 2 0.442959 0.878759 0.255485
432 1 0.390626 0.933467 0.323934
545 2 0.445119 0.994476 0.264228
433 1 0.0198648 0.751998 0.379947
434 1 0.0722214 0.812198 0.447051
443 1 0.129971 0.869205 0.380499
436 1 0.188436 0.807649 0.451578
447 1 0.334192 0.863317 0.392431
438 1 0.285141 0.805432 0.454529
945 2 0.448098 0.760859 0.379544
440 1 0.412341 0.811593 0.4532
442 1 0.0829478 0.9514 0.426449
459 1 0.132508 0.885946 0.492707
445 1 0.227018 0.879185 0.379767
444 1 0.185164 0.955357 0.43011
461 1 0.23263 0.886399 0.4946
446 1 0.282993 0.943013 0.422929
463 1 0.335072 0.879025 0.491908
953 2 0.448648 0.876682 0.386576
421 1 0.231957 0.750793 0.263291
448 1 0.399065 0.939696 0.434538
969 2 0.454455 0.876867 0.498173
450 2 0.0852353 0.827889 0.552397
465 1 0.0279661 0.760313 0.622383
452 1 0.184493 0.826452 0.559238
469 2 0.231716 0.761313 0.618069
467 1 0.126072 0.762426 0.616026
454 1 0.285293 0.821253 0.558918
471 1 0.339302 0.76269 0.620685
456 1 0.393314 0.817943 0.554329
458 1 0.0845008 0.937232 0.578098
457 1 0.0232913 0.891986 0.503073
67 1 0.128764 0.996604 0.504901
460 1 0.178236 0.93181 0.569431
69 1 0.232218 0.992882 0.510859
71 1 0.343758 0.987573 0.503908
462 1 0.290917 0.934252 0.563489
87 1 0.339166 0.997543 0.62181
464 1 0.402112 0.927574 0.567414
466 1 0.0672795 0.799539 0.704571
473 1 0.0190079 0.872712 0.647212
475 1 0.125043 0.865336 0.636275
468 1 0.179514 0.808455 0.693518
477 1 0.231872 0.876577 0.63379
470 1 0.29207 0.811119 0.701503
985 2 0.446365 0.861645 0.628813
472 1 0.393418 0.812268 0.691093
489 1 0.0151758 0.885726 0.746833
474 1 0.0788432 0.950717 0.682841
491 1 0.123324 0.878926 0.739251
476 1 0.176864 0.94129 0.682703
493 1 0.231415 0.884537 0.745717
478 1 0.284448 0.949027 0.679781
495 1 0.345305 0.888037 0.74469
479 1 0.344898 0.87888 0.62871
1001 2 0.449675 0.883314 0.743154
480 1 0.401094 0.933451 0.681404
977 2 0.44825 0.753521 0.62485
577 2 0.451141 0.996653 0.501577
482 1 0.0728297 0.820897 0.809179
484 1 0.180619 0.818987 0.805741
501 2 0.241556 0.760753 0.868273
499 1 0.143577 0.752719 0.872336
486 1 0.295312 0.822129 0.800972
503 1 0.335866 0.760679 0.866125
488 1 0.398022 0.817995 0.806277
1009 2 0.448454 0.757722 0.864954
490 1 0.0784844 0.931069 0.822363
97 1 0.025724 0.997788 0.76326
101 1 0.233866 0.989093 0.766218
492 1 0.177781 0.936953 0.827924
99 1 0.128646 0.995626 0.762602
494 1 0.292249 0.935108 0.818463
103 1 0.346341 0.996097 0.760411
609 2 0.447526 0.994636 0.766198
496 2 0.394764 0.927092 0.825371
498 1 0.0805584 0.798282 0.945692
505 1 0.0327253 0.873952 0.882857
500 1 0.186609 0.801713 0.95287
507 2 0.134793 0.866634 0.886879
511 1 0.341698 0.86201 0.87827
509 1 0.241363 0.862904 0.878334
502 1 0.290586 0.805238 0.945168
1017 2 0.453175 0.86565 0.878486
504 1 0.398668 0.819404 0.938316
897 2 0.452989 0.764759 0.998996
1 1 0.0210588 0.996389 0.995898
506 1 0.0875478 0.953981 0.929325
393 1 0.0281351 0.882041 0.987847
395 1 0.127939 0.881175 0.988515
508 1 0.188 0.944422 0.933867
397 1 0.232659 0.883033 0.997478
399 1 0.339491 0.879463 0.993531
510 1 0.294231 0.944997 0.928735
512 1 0.392873 0.929647 0.935817
625 2 0.442943 0.994412 0.881565
514 1 0.521087 0.0646601 0.0569375
539 2 0.594036 0.115492 0.12317
516 1 0.679918 0.0674859 0.074548
518 2 0.825622 0.0704971 0.0550573
520 2 0.976273 0.065154 0.0524373
535 2 0.905163 0.00332981 0.116287
522 2 0.521417 0.180285 0.0734372
643 2 0.593265 0.240995 0.00691097
523 2 0.601766 0.128937 0.015787
524 2 0.672291 0.187279 0.0776166
526 2 0.828128 0.194755 0.0635119
541 2 0.753762 0.127273 0.123167
525 2 0.750229 0.13582 0.00306612
528 2 0.967943 0.198576 0.0659851
543 2 0.905095 0.129983 0.126025
527 2 0.898058 0.129666 0.00165286
531 2 0.59295 0.00452265 0.13024
530 2 0.510662 0.0609508 0.203872
532 2 0.665703 0.0581148 0.192697
533 2 0.764317 4.36495e-05 0.135143
534 2 0.834391 0.0632982 0.194492
557 2 0.747272 0.108773 0.245572
536 1 0.964043 0.060883 0.187727
659 2 0.597758 0.232178 0.131931
538 2 0.515514 0.18779 0.192763
540 2 0.672079 0.170201 0.193577
661 2 0.75237 0.246535 0.135375
542 2 0.821199 0.17999 0.200094
544 2 0.977115 0.177659 0.188948
663 2 0.902136 0.243707 0.136168
515 2 0.599387 4.36667e-05 0.012015
546 2 0.516359 0.0614148 0.322321
571 2 0.603477 0.111247 0.375735
555 2 0.596397 0.121674 0.25248
548 2 0.689285 0.0505789 0.318831
550 2 0.820723 0.0713549 0.317263
552 2 0.963556 0.0693324 0.309991
554 2 0.530689 0.192192 0.313975
675 2 0.597696 0.236236 0.254338
556 2 0.679472 0.174673 0.316704
558 2 0.828023 0.185927 0.322715
677 2 0.742866 0.245602 0.270304
560 2 0.977541 0.178289 0.312178
559 2 0.895861 0.130585 0.25726
562 2 0.522583 0.0640282 0.445941
587 2 0.606759 0.113073 0.49692
564 1 0.68073 0.0474329 0.440096
573 2 0.751582 0.116106 0.392676
566 2 0.827222 0.055123 0.452916
575 2 0.909694 0.121149 0.387997
568 2 0.973986 0.0566401 0.436145
567 2 0.893657 0.00373566 0.377524
691 2 0.606253 0.245684 0.384917
570 2 0.536851 0.184978 0.436355
572 2 0.675281 0.179387 0.447375
574 2 0.824727 0.187567 0.450995
693 2 0.747531 0.238254 0.379188
576 2 0.967931 0.190571 0.448285
578 2 0.507409 0.0693693 0.562804
580 2 0.682265 0.0610554 0.561455
582 2 0.829774 0.0706225 0.562485
597 2 0.758032 0.0147738 0.623217
584 2 0.983769 0.068101 0.565331
599 2 0.896462 0.0084122 0.615542
586 2 0.530747 0.17335 0.573125
588 2 0.656928 0.183736 0.560152
589 2 0.75214 0.131279 0.509703
590 2 0.823051 0.194536 0.569913
605 2 0.738924 0.136129 0.619388
591 2 0.905779 0.133891 0.511819
592 2 0.984095 0.188442 0.576565
603 2 0.58992 0.110542 0.629253
594 1 0.522357 0.0624634 0.690622
619 2 0.597128 0.118054 0.744663
596 2 0.676029 0.057007 0.688763
598 2 0.839443 0.062412 0.694068
613 2 0.752093 0.00992603 0.749587
600 2 0.974614 0.0557976 0.704801
602 2 0.521781 0.18362 0.688362
739 1 0.601094 0.244833 0.74257
723 2 0.594032 0.241914 0.631607
604 2 0.669403 0.178099 0.684315
607 2 0.907915 0.132916 0.627981
606 2 0.822092 0.184722 0.683444
623 2 0.909128 0.140524 0.736042
608 1 0.981605 0.201803 0.683987
725 2 0.74568 0.24953 0.639908
611 2 0.589818 0.0039987 0.749906
610 2 0.518563 0.0580537 0.811045
639 2 0.899916 0.143046 0.88131
635 2 0.593529 0.123851 0.86932
612 2 0.664773 0.0734837 0.812618
614 2 0.835531 0.0791867 0.806239
616 2 0.967193 0.0808351 0.812107
618 2 0.52774 0.180031 0.802889
755 2 0.603942 0.242386 0.859272
620 2 0.68142 0.186452 0.815671
621 1 0.738608 0.131392 0.754524
622 2 0.8274 0.198565 0.807363
624 2 0.981693 0.193115 0.819584
626 2 0.533702 0.0642427 0.93167
628 2 0.669525 0.0714476 0.93434
629 2 0.731605 0.00955193 0.879152
630 2 0.822387 0.0682045 0.937668
517 2 0.748698 0.00735673 0.999806
631 2 0.898139 0.0118566 0.877464
640 2 0.970533 0.191523 0.940595
632 2 0.971901 0.0753361 0.939933
634 2 0.533159 0.191252 0.92842
636 2 0.667152 0.192047 0.930069
638 2 0.82779 0.197415 0.938668
637 2 0.750739 0.129886 0.882861
642 2 0.525649 0.313309 0.068356
644 2 0.654089 0.301762 0.0751246
646 2 0.831018 0.309592 0.0621755
669 2 0.743438 0.359989 0.129167
648 2 0.978072 0.323784 0.066631
647 2 0.908533 0.25705 0.00821995
650 1 0.529569 0.433576 0.0666445
771 2 0.608868 0.497407 0.00645913
651 2 0.607923 0.380605 0.014253
652 2 0.675891 0.444872 0.0815081
654 2 0.804662 0.434974 0.0599159
775 2 0.899868 0.487435 0.00308402
656 2 0.967834 0.431921 0.064277
658 2 0.531101 0.306299 0.193407
660 2 0.670007 0.293046 0.196486
685 2 0.732043 0.367211 0.248158
662 2 0.820542 0.310596 0.201007
671 2 0.900585 0.374581 0.124496
664 2 0.971987 0.313658 0.186154
667 2 0.602373 0.382617 0.13649
666 2 0.522083 0.446368 0.195877
787 2 0.603047 0.495057 0.137924
668 2 0.684846 0.44498 0.193684
670 2 0.821153 0.430655 0.181986
807 2 0.894935 0.485561 0.245755
672 2 0.972913 0.443554 0.184023
674 2 0.528414 0.309648 0.323218
676 1 0.663616 0.319664 0.320046
678 2 0.837525 0.30982 0.319412
701 2 0.741374 0.376104 0.375974
687 2 0.902733 0.36931 0.250591
680 2 0.977088 0.319451 0.31651
679 2 0.906609 0.251455 0.253138
683 2 0.594279 0.383319 0.254084
682 2 0.518046 0.437287 0.321011
684 2 0.683404 0.451562 0.305401
686 1 0.825668 0.430786 0.318607
805 2 0.766537 0.497769 0.251754
703 2 0.903299 0.380442 0.372418
688 2 0.973437 0.437244 0.30369
690 2 0.523038 0.308302 0.444276
692 2 0.668386 0.314958 0.434078
694 2 0.814636 0.316752 0.448514
696 2 0.975553 0.306223 0.437286
719 2 0.908183 0.375935 0.481941
695 2 0.907199 0.252281 0.379917
699 2 0.595693 0.388669 0.384197
698 2 0.521775 0.450903 0.428232
715 2 0.60083 0.379459 0.498722
700 2 0.674962 0.444998 0.436195
702 2 0.8245 0.441042 0.441752
704 2 0.974131 0.439613 0.437409
709 2 0.736985 0.256034 0.499805
706 2 0.525948 0.325281 0.566667
707 2 0.600173 0.255151 0.502842
741 2 0.752673 0.251489 0.746768
708 2 0.667876 0.312549 0.562254
710 2 0.818985 0.313345 0.572635
717 2 0.745842 0.374808 0.51014
712 2 0.979066 0.324357 0.565624
727 2 0.903935 0.252489 0.623663
735 2 0.899781 0.366184 0.624902
711 2 0.909824 0.252078 0.506861
731 2 0.605229 0.383534 0.622651
714 2 0.520406 0.449681 0.555982
716 2 0.663087 0.450668 0.55302
733 2 0.738644 0.379171 0.619646
718 2 0.822998 0.431297 0.561825
855 2 0.915585 0.490283 0.617693
839 2 0.907583 0.487921 0.501512
720 2 0.980782 0.429548 0.560258
722 2 0.520347 0.305914 0.689384
724 2 0.667549 0.31481 0.696183
726 2 0.81665 0.320428 0.687635
736 2 0.967484 0.437221 0.685018
728 2 0.980992 0.317011 0.686779
743 2 0.896505 0.269565 0.744059
730 2 0.516174 0.433123 0.678905
747 2 0.602948 0.390175 0.745483
853 1 0.75265 0.491432 0.636579
732 2 0.667115 0.446108 0.694098
734 2 0.844032 0.443121 0.679764
738 2 0.532394 0.309525 0.809398
740 2 0.67094 0.325555 0.812435
742 2 0.821954 0.32452 0.825365
757 1 0.752989 0.258197 0.872406
744 2 0.973052 0.310564 0.817504
751 2 0.900398 0.376497 0.762668
746 2 0.528999 0.445029 0.813676
763 2 0.595833 0.375715 0.873627
748 2 0.653453 0.455291 0.814595
765 2 0.740749 0.391822 0.871739
749 2 0.744778 0.37926 0.755687
750 2 0.822794 0.444701 0.81
752 2 0.978351 0.438942 0.82314
871 2 0.907623 0.492918 0.76464
754 2 0.535618 0.311167 0.945788
756 2 0.658088 0.31438 0.932549
645 2 0.742402 0.255861 0.984097
653 2 0.731136 0.374772 0.998354
758 2 0.821591 0.311554 0.951819
760 2 0.980396 0.30986 0.953714
655 2 0.899277 0.372029 0.995926
759 2 0.912655 0.260184 0.886342
762 2 0.533494 0.436117 0.93454
764 2 0.669605 0.43649 0.934525
766 2 0.826911 0.440436 0.930576
767 2 0.90755 0.381591 0.87475
768 2 0.980472 0.441531 0.941858
770 2 0.531549 0.544712 0.0716781
772 2 0.674143 0.569333 0.0794897
774 2 0.814385 0.558079 0.058692
776 2 0.984112 0.564351 0.0677754
791 2 0.902639 0.505545 0.116649
799 2 0.908196 0.619955 0.122109
778 2 0.512331 0.700679 0.0645122
779 2 0.600467 0.637246 0.00670743
780 2 0.672771 0.68378 0.0719724
800 1 0.966108 0.695267 0.179458
782 2 0.830239 0.693037 0.0687304
781 2 0.748917 0.632509 0.00136826
783 2 0.903249 0.625141 0.00488596
784 2 0.974528 0.68367 0.0652532
786 2 0.529099 0.569004 0.196825
788 2 0.684696 0.559145 0.200292
797 2 0.750131 0.61779 0.132304
789 2 0.76336 0.509563 0.146489
790 1 0.841077 0.576498 0.204962
792 2 0.978483 0.556867 0.187904
794 2 0.519569 0.700805 0.191937
795 2 0.586025 0.628905 0.131638
811 2 0.605694 0.631547 0.24479
796 2 0.679062 0.691788 0.189382
798 2 0.841587 0.697525 0.18631
802 2 0.526224 0.567697 0.307092
827 2 0.598161 0.619386 0.374488
803 2 0.594872 0.506909 0.252109
819 2 0.609883 0.501827 0.370491
804 2 0.676143 0.567203 0.314728
806 2 0.81063 0.569665 0.311023
808 2 0.975872 0.570608 0.302314
823 2 0.912357 0.502449 0.358523
831 2 0.904457 0.614009 0.375081
810 1 0.529509 0.680788 0.307593
812 2 0.665484 0.698709 0.308162
814 2 0.839549 0.693541 0.32656
813 2 0.750895 0.636754 0.254337
949 2 0.75039 0.746765 0.361291
816 2 0.964993 0.683279 0.323077
815 2 0.902492 0.636395 0.261105
835 2 0.593173 0.510902 0.490745
818 2 0.518635 0.561741 0.445301
820 2 0.673475 0.566215 0.427737
837 2 0.740949 0.501408 0.491995
822 2 0.835547 0.549094 0.439367
821 2 0.752487 0.501603 0.375683
824 2 0.977855 0.555239 0.444618
832 2 0.970455 0.692868 0.443457
826 2 0.515348 0.698392 0.426926
963 2 0.610302 0.743601 0.497678
828 2 0.677059 0.686064 0.438028
829 2 0.758252 0.637071 0.381122
830 2 0.841119 0.680785 0.441246
843 2 0.598254 0.629794 0.498499
933 2 0.751984 0.749227 0.251723
834 2 0.524101 0.56321 0.566087
859 1 0.599799 0.621511 0.625249
836 2 0.684441 0.564035 0.590699
838 2 0.826444 0.549092 0.564093
840 2 0.975363 0.563362 0.556347
863 2 0.902689 0.614702 0.624083
842 2 0.520797 0.6808 0.561227
851 2 0.595559 0.501957 0.629032
844 2 0.672759 0.686015 0.57086
846 2 0.846079 0.689917 0.563907
861 2 0.763081 0.632907 0.625935
845 2 0.751633 0.627634 0.504524
965 2 0.751893 0.734277 0.517732
848 2 0.97668 0.699457 0.568907
867 1 0.60029 0.503042 0.740035
850 2 0.518451 0.575558 0.682203
852 2 0.684025 0.573564 0.698489
877 2 0.770976 0.617099 0.740021
854 2 0.846504 0.546654 0.676504
856 2 0.96818 0.556663 0.688473
979 2 0.598058 0.749522 0.634795
858 2 0.526477 0.691611 0.681717
995 2 0.598425 0.745915 0.74988
860 2 0.678658 0.692157 0.680829
997 2 0.758731 0.74679 0.744648
862 2 0.839752 0.699716 0.684687
864 1 0.970003 0.696784 0.680897
847 2 0.89836 0.610697 0.501686
866 2 0.536488 0.567362 0.792953
868 2 0.686338 0.569163 0.804971
885 2 0.741709 0.506541 0.874375
870 2 0.827602 0.565165 0.82076
893 2 0.758502 0.619004 0.877226
869 2 0.753915 0.503387 0.753017
872 2 0.976091 0.566606 0.819063
879 2 0.908938 0.624712 0.75072
891 2 0.603472 0.629071 0.87357
874 2 0.523141 0.684707 0.812587
1011 2 0.601086 0.742435 0.863376
875 2 0.608833 0.634381 0.756685
876 2 0.688637 0.686269 0.801774
878 2 0.821975 0.688271 0.809039
1013 2 0.758365 0.747524 0.875474
880 2 0.97675 0.673291 0.826149
999 2 0.899237 0.74512 0.766798
882 2 0.522396 0.562195 0.959701
883 2 0.59955 0.508342 0.893809
884 2 0.678687 0.569198 0.944911
773 2 0.736351 0.5048 0.996626
886 2 0.826767 0.554012 0.939633