LAMMPS data file via write_data, version 2 Aug 2023, timestep = 10000, units = metal

1024 atoms
2 atom types

-12.097468664524094 12.097468664524094 xlo xhi
-12.097468664524094 12.097468664524094 ylo yhi
-12.097468664524094 12.097468664524094 zlo zhi

Masses

1 55.847
2 26.982

Atoms # atomic

2 1 -10.15648638880198 -10.338120995466992 -10.668580691218578 0 0 0
17 1 -11.574272847788562 -11.875448228012814 -9.211844342246282 0 0 0
1 1 -11.553631518127036 -11.949554795443563 -12.073940723240016 0 0 0
4 1 -7.487445552564551 -10.257181010780576 -10.68994474304006 0 0 0
21 1 -6.262416499659854 -11.819247567973303 -9.219740553660207 0 0 0
19 1 -8.873040437670491 -11.802725197691158 -9.212235904378186 0 0 0
6 1 -4.870025515548525 -10.32236974545596 -10.671083635723427 0 0 0
23 1 -3.7102259206594934 -11.967102515628419 -9.113547191254357 0 0 0
8 1 -2.2304872524342394 -10.63082257654652 -10.558291460131107 0 0 0
521 2 -0.9469372947574459 -9.183861076176955 -11.961461487522307 0 0 0
10 1 -10.25563380803775 -7.478599030448567 -10.586007334894692 0 0 0
25 1 -11.652740707216331 -8.968221421759182 -9.150299259277562 0 0 0
12 1 -7.522793952484516 -7.43421436405232 -10.493301719072258 0 0 0
14 1 -4.769530027102484 -7.430240614547598 -10.454510334917241 0 0 0
15 1 -3.472729808216248 -8.826064353978891 -12.076878161009546 0 0 0
16 1 -2.0107730925813083 -7.422722012746265 -10.456024340022967 0 0 0
18 1 -10.222324606148595 -10.457351016029104 -7.577353202575812 0 0 0
33 1 -11.582267199677041 -11.95113188959665 -6.129171943355241 0 0 0
20 1 -7.568798876689273 -10.572121853255874 -7.489329943296539 0 0 0
22 1 -4.973632815587147 -10.54336160913635 -7.463178160055363 0 0 0
537 2 -1.0517861058639129 -9.219767365815914 -9.023138134980272 0 0 0
24 1 -2.350543494691683 -10.642741886586899 -7.4843627274586835 0 0 0
41 1 -11.688400640443435 -8.895536276086805 -6.2369281280814715 0 0 0
26 1 -10.330553658983598 -7.358852559022231 -7.720606421696478 0 0 0
29 1 -6.206199603173625 -8.985654081986874 -8.981138478587976 0 0 0
27 1 -8.875739847403082 -8.972984694168588 -9.031360856631428 0 0 0
43 1 -8.876791040714576 -8.720344691549037 -6.3051192777022385 0 0 0
45 1 -6.304879778022161 -8.67234526535798 -6.293543595524819 0 0 0
28 2 -7.575256182943015 -7.178690508252469 -7.81417048278144 0 0 0
30 1 -4.853699477326102 -7.237521328358609 -7.689673614404288 0 0 0
47 1 -3.6237973196167337 -8.756038968481203 -6.1802938256225595 0 0 0
31 1 -3.5657769081355175 -9.009497834807327 -8.97791249008029 0 0 0
32 1 -2.067605641683812 -7.360748210536876 -7.5783629084173905 0 0 0
553 2 -1.1268071370782793 -9.131226768646707 -6.054676368119528 0 0 0
34 1 -10.147282976357921 -10.251521601438263 -4.8048618814894875 0 0 0
49 1 -11.400372362550875 -11.755681459991752 -3.003383012563163 0 0 0
36 1 -7.579167633626697 -10.202769967729862 -4.841486680115736 0 0 0
51 1 -8.849969032652126 -11.690642822400424 -3.284866568351164 0 0 0
53 1 -6.336200578193119 -11.737929052109498 -3.342263035570136 0 0 0
35 1 -8.907613958288803 -12.079030857223817 -6.007344159806186 0 0 0
55 1 -3.867739546142011 -11.906859456569233 -3.309182679409807 0 0 0
38 1 -5.023415441154001 -10.270704956113823 -4.883128180463478 0 0 0
40 1 -2.4178088119496066 -10.58450885650949 -4.706273714361647 0 0 0
64 1 -2.2160230354578307 -7.312129431619388 -1.7014361781739737 0 0 0
569 2 -1.2805631427954025 -9.199353916680504 -3.1045217906266185 0 0 0
42 1 -10.211628755294809 -7.466775425472429 -4.578158941849513 0 0 0
44 1 -7.595217488322774 -7.44658915764545 -4.484805124537798 0 0 0
46 1 -4.9442353737842915 -7.38454279391839 -4.5727941224021444 0 0 0
63 1 -3.752514798003305 -8.99859946616629 -3.093340128359461 0 0 0
48 1 -2.1695115359367487 -7.373483523277942 -4.559355927501345 0 0 0
50 1 -10.015355538169828 -10.472835538216252 -1.3002235523682542 0 0 0
52 1 -7.518471300710433 -10.60714795475453 -1.3658432572906023 0 0 0
54 2 -5.004020718977503 -10.643559105559666 -1.4215041761932288 0 0 0
56 1 -2.5219609196346067 -10.673471834933736 -1.5564250314038532 0 0 0
585 2 -1.2661258078509456 -9.130648973828244 -0.22973090317389597 0 0 0
57 1 -11.43949093363732 -8.982151410482038 -2.94394549097007 0 0 0
58 1 -10.102946701036986 -7.3015769953362915 -1.6331627749231121 0 0 0
61 1 -6.253855800124816 -9.017028710587603 -3.0031685446496987 0 0 0
59 1 -8.829010720144623 -9.026855828432012 -2.9659778617916412 0 0 0
60 1 -7.553174380844442 -7.1879057712341226 -1.7686045623001474 0 0 0
77 1 -6.2400009761585995 -8.665929604857082 -0.297809723164616 0 0 0
75 1 -8.758533746227332 -8.683717425985964 -0.1532205507323835 0 0 0
62 1 -4.947386449278685 -7.160224247236051 -1.799330699225619 0 0 0
79 1 -3.730051022318747 -8.721959164360626 -0.30233796164495297 0 0 0
66 1 -10.013327622093056 -10.256232772752215 1.4471248081057932 0 0 0
65 1 -11.372108597357336 -11.958963112868984 0.15662130711870212 0 0 0
68 1 -7.478205692535716 -10.196896948898846 1.2992975643430593 0 0 0
83 2 -8.772086740030431 -11.747043761519784 2.8869113532933235 0 0 0
85 1 -6.2713217845842575 -11.748054727508 2.7982738470876436 0 0 0
70 1 -4.9894536052206115 -10.213088652507418 1.2392589610729363 0 0 0
87 1 -3.828944573252648 -11.83241793375983 2.7912091259255756 0 0 0
72 1 -2.4479751006868082 -10.451335843837649 1.3079601538565317 0 0 0
601 2 -1.2653287848385806 -9.225158548614186 2.990904045082907 0 0 0
593 2 -1.2903416130996044 -12.033508088045075 2.8885807479866026 0 0 0
74 1 -9.983014146593028 -7.5486468349603335 1.7704538238489864 0 0 0
73 1 -11.460994346056127 -8.827481285378012 0.10601613095806522 0 0 0
76 1 -7.433883940324914 -7.562357639893138 1.706954630680883 0 0 0
78 1 -4.908911269999718 -7.535507375333491 1.5900469755759585 0 0 0
80 1 -2.265067628469546 -7.498275208465108 1.4525873719923648 0 0 0
81 1 -11.356062924596186 -11.836658206724506 3.097504533377683 0 0 0
82 1 -9.968305870806223 -10.549316976139073 4.789163017958083 0 0 0
91 1 -8.691111440218938 -9.083873348387398 3.282901782176072 0 0 0
93 1 -6.1700620259370424 -9.118731464431509 3.2533664198763814 0 0 0
84 1 -7.420511266603946 -10.671365296326835 4.831097293895295 0 0 0
95 1 -3.7158274233414095 -9.083181861098732 3.149108173216882 0 0 0
86 1 -4.921485862120224 -10.707329510395462 4.8061510086431944 0 0 0
88 1 -2.426668169901561 -10.658276779504183 4.6002480469822045 0 0 0
89 1 -11.377236187113626 -9.00779089416517 3.207173378324616 0 0 0
90 1 -10.036940722036945 -7.38397494040116 4.581122864985967 0 0 0
92 1 -7.409550844309855 -7.25711817638738 4.448064261834249 0 0 0
109 1 -6.116038586456745 -8.773492269902786 5.961826073518993 0 0 0
107 1 -8.683225455303619 -8.8057211627396 6.006254062075736 0 0 0
94 1 -4.854179106417775 -7.213836106286541 4.397908126042089 0 0 0
111 1 -3.607300682075392 -8.755016556194906 5.917961207631211 0 0 0
96 1 -2.2148496797507664 -7.296048261882672 4.341187052578682 0 0 0
617 2 -1.1896964138681683 -9.045137425214712 5.866245113223235 0 0 0
193 2 -11.328338327513878 -6.068346188745114 0.2412017095216879 0 0 0
98 1 -9.983600757885558 -10.343129000743996 7.506531193894609 0 0 0
97 1 -11.37398260711689 -11.972931054983153 6.210518590829207 0 0 0
100 1 -7.3838639517855915 -10.272620496872781 7.514086323890532 0 0 0
115 1 -8.707667376937573 -11.786141411849272 9.00975539592227 0 0 0
117 1 -6.130678971835711 -11.840497892274334 8.959553106246004 0 0 0
102 1 -4.812713474636246 -10.306088804779781 7.482860200709566 0 0 0
119 1 -3.5863313353584503 -11.949325294003788 9.052101146583977 0 0 0
104 1 -2.2710334706437703 -10.456672979121496 7.516323824005637 0 0 0
106 1 -10.050829332382134 -7.653382237265853 7.76322313921565 0 0 0
105 1 -11.419525734360946 -8.93969286017659 6.097812502134278 0 0 0
108 1 -7.437006479545184 -7.640327191752447 7.884429242140086 0 0 0
227 1 -8.754435835061326 -6.12396372579349 6.3420460810541 0 0 0
229 2 -6.165328970123063 -6.183703970507449 6.445581847297797 0 0 0
231 1 -3.410746499143874 -6.065960167410384 6.284199953414814 0 0 0
110 1 -4.714977579648069 -7.605725026814341 7.8673578317197 0 0 0
112 1 -2.0948933608734244 -7.594209338186307 7.802081322356905 0 0 0
113 1 -11.415244308636053 -11.886827762042007 9.136564850184081 0 0 0
114 2 -9.942428428961325 -10.653436857947217 10.851085455683178 0 0 0
116 1 -7.375363679962783 -10.640438901961366 10.872131726554786 0 0 0
123 1 -8.770513314641823 -9.108065849951526 9.360734300304632 0 0 0
125 1 -6.081177194920571 -9.105170119916433 9.37823060901331 0 0 0
127 1 -3.4926086307421227 -9.143471291792325 9.399339398222775 0 0 0
118 1 -4.8502006034062175 -10.683334380351594 10.884614580622003 0 0 0
633 2 -0.924375050898869 -9.275592393148818 9.326603857321091 0 0 0
120 1 -2.2183218257118664 -10.745730747957786 10.845900700264089 0 0 0
121 1 -11.432367239154242 -9.081322006863395 9.204736863127302 0 0 0
9 1 -11.559179896839401 -8.979750784953314 12.01622342924099 0 0 0
122 1 -10.142518575135945 -7.337541654715506 10.566416625540015 0 0 0
13 1 -6.11713126225234 -8.731296301077771 12.058038263761755 0 0 0
124 1 -7.436542212684422 -7.280210584124501 10.563611795848404 0 0 0
11 1 -8.811858489418558 -8.785493348088314 12.03721309010536 0 0 0
126 1 -4.73707655917362 -7.264397366147802 10.587849307952707 0 0 0
128 1 -1.9547360038050083 -7.371413967826091 10.681576977034922 0 0 0
225 1 -11.449771819009305 -6.061820624751882 6.230618993738284 0 0 0
130 1 -10.37826171960056 -4.451384416767573 -10.657499490609164 0 0 0
145 1 -11.804794884660533 -5.994834577791287 -9.186250889115135 0 0 0
153 1 -11.906748764009572 -3.0800504853334063 -9.164742609952796 0 0 0
132 1 -7.60603357277838 -4.342422923446485 -10.58414499252389 0 0 0
149 1 -6.166107259952814 -5.750822090056148 -9.162507998004289 0 0 0
147 1 -9.020814701861891 -5.824570950839326 -9.186166601898979 0 0 0
131 1 -8.880909361201411 -5.9617782851208325 -11.999241117664544 0 0 0
133 2 -6.133817739504222 -5.923421025213643 -11.897571135655685 0 0 0
134 1 -4.744202908274417 -4.314695589527454 -10.551061229452849 0 0 0
135 1 -3.3674923087160886 -5.925095346565908 -11.953205326822628 0 0 0
151 1 -3.409565225962851 -5.805842830763636 -9.059126915848827 0 0 0
641 2 -0.592832289236821 -5.877295764148207 -11.869042559866914 0 0 0
136 1 -1.9459962448070294 -4.353437943777616 -10.489117029223681 0 0 0
138 1 -10.457524239279707 -1.5758314301893008 -10.602929017144968 0 0 0
273 1 -11.98167056596342 -0.11130700041846653 -9.19521018209809 0 0 0
275 1 -9.13846754801365 -0.03929740657066796 -9.12611050595913 0 0 0
140 1 -7.665184604777096 -1.5266181689713898 -10.532414321146959 0 0 0
259 1 -9.072051334011313 -0.08294933667594809 -12.004891310296117 0 0 0
261 1 -6.252093554930273 -0.07488643252927901 -11.935890206589196 0 0 0
139 1 -8.98315493539492 -2.960699225038818 -12.093583893908479 0 0 0
155 1 -9.084488340970024 -2.987962644131146 -9.07700732152505 0 0 0
141 1 -6.180961512833235 -2.926325085766906 -12.043555533888778 0 0 0
263 1 -3.4743591684010444 -0.039972101429821785 -11.955333793844394 0 0 0
142 1 -4.839647395507041 -1.4874245045615404 -10.480741178513581 0 0 0
143 1 -3.3804024228557132 -2.8828675107138815 -12.012849257627863 0 0 0
649 2 -0.657190387395981 -2.8084046552068918 -11.899762201908656 0 0 0
144 1 -1.980303454450902 -1.3923998179585277 -10.441258372578456 0 0 0
146 1 -10.443449276539258 -4.4890542384896595 -7.609682419621461 0 0 0
161 1 -11.782494918138756 -6.0147966078547235 -6.146933912218445 0 0 0
148 1 -7.654734900673266 -4.418102864228678 -7.604397545419706 0 0 0
163 1 -8.976334251861251 -5.948957066413156 -6.102272586503619 0 0 0
165 1 -6.279570735935477 -5.89440301598905 -6.071826831222408 0 0 0
150 1 -4.847885418585221 -4.385677810123101 -7.5496214482194945 0 0 0
167 1 -3.5057760989117255 -5.88295741834778 -6.066497182618646 0 0 0
152 1 -2.0282427185797998 -4.345143380840239 -7.4959343411937125 0 0 0
657 2 -0.6402709062883407 -5.800010361848266 -8.951650141942284 0 0 0
154 1 -10.532659005855058 -1.5206678530608344 -7.663847428236635 0 0 0
169 1 -11.916538372842478 -3.0149908911139174 -6.14386381281934 0 0 0
289 1 -11.966208804343019 -0.11925506911733838 -6.105635045669472 0 0 0
171 1 -9.104787972580594 -2.918717768664881 -6.198031626499879 0 0 0
291 1 -9.165264957690495 -0.09571551712582979 -6.087785745305577 0 0 0
157 1 -6.258326810037832 -2.9480622375775356 -9.04826192035035 0 0 0
156 1 -7.726216338664847 -1.4610559205585165 -7.63933527325966 0 0 0
173 1 -6.320993762269374 -2.88899124187752 -6.161707187964746 0 0 0
293 1 -6.405178904017201 -0.045796193837490756 -6.051716050340054 0 0 0
159 1 -3.4408621166363016 -2.8907586273283172 -8.988899727667512 0 0 0
158 1 -4.94752248265468 -1.4482922442732118 -7.587342234059221 0 0 0
175 1 -3.540562467717218 -2.8525344754852497 -6.077158012379159 0 0 0
665 2 -0.7071617461320909 -2.8340164728650614 -8.952330307282802 0 0 0
160 1 -2.081937220328923 -1.3660753551307283 -7.4539789752833014 0 0 0
162 1 -10.373362655197072 -4.412953057415258 -4.709415846309352 0 0 0
164 1 -7.677104185244101 -4.312380368956551 -4.733783030596335 0 0 0
179 1 -8.953846590514335 -5.761844181386138 -3.221585161389513 0 0 0
181 1 -6.292671881954732 -5.713106094079449 -3.261189214356911 0 0 0
166 1 -4.908215585907898 -4.3129881042633675 -4.68477042441153 0 0 0
183 1 -3.5530444300893396 -5.762678717546579 -3.1951109034577625 0 0 0
168 1 -2.093038920645251 -4.3213394883594445 -4.581340140465095 0 0 0
673 2 -0.7087295716813229 -5.806697784886103 -6.007158017579892 0 0 0
689 2 -0.7683455777681307 -5.770170776639141 -3.074073981531573 0 0 0
170 1 -10.449261727552372 -1.5545080585321356 -4.553569695921971 0 0 0
187 1 -9.034587430495444 -3.031467183885054 -3.041179633008841 0 0 0
172 1 -7.755172047861858 -1.5317453153671616 -4.579888567683712 0 0 0
189 1 -6.353887073743098 -2.9853432866749823 -3.0647734953755594 0 0 0
174 1 -5.017707177025233 -1.4913133709219586 -4.549102486161575 0 0 0
191 1 -3.6072204420067053 -2.912249895528811 -3.0734137834022723 0 0 0
697 2 -0.8773371667526464 -2.836866672210587 -3.026176926809421 0 0 0
681 2 -0.7902660898061167 -2.823126184426741 -5.983746837211508 0 0 0
176 1 -2.1730694786857017 -1.3669191851650397 -4.551614210206965 0 0 0
177 1 -11.603701852619581 -5.910086932636213 -3.00717496504832 0 0 0
178 1 -10.204635174550654 -4.517531678771163 -1.3940986842975418 0 0 0
180 1 -7.613824814752179 -4.490503519122575 -1.4776796399202752 0 0 0
182 1 -4.950803231289512 -4.446562397935524 -1.5676374441162397 0 0 0
199 1 -3.5978519400811027 -5.938010218399408 -0.04625808900516878 0 0 0
184 1 -2.1704798353507835 -4.3631143968753 -1.5707543507489772 0 0 0
705 2 -0.8498544149390641 -5.8383880834532444 -0.1213519408752162 0 0 0
185 1 -11.695327161022963 -3.0384206042855815 -2.9355114385683367 0 0 0
305 1 -11.786140787764548 -0.0040494989636543945 -2.919822146173407 0 0 0
186 1 -10.313657597527977 -1.477089670085621 -1.5276740956523271 0 0 0
188 1 -7.722971850067098 -1.4055700326355705 -1.677806782594445 0 0 0
203 1 -8.932708000590216 -2.877184189488964 -0.0523039439849891 0 0 0
205 1 -6.311703419261656 -2.8130796358255403 -0.19783838203271895 0 0 0
327 1 -3.75196257712397 -0.016617950577503305 -0.01369113758931047 0 0 0
207 1 -3.651784909257201 -2.825018147290845 -0.2387574333758274 0 0 0
190 1 -5.032898258373072 -1.3677811535046864 -1.6997906233213398 0 0 0
713 2 -0.9364292029770549 -2.7881466856490986 -0.07507459348332893 0 0 0
192 1 -2.2461878475798827 -1.3530133717924209 -1.593904583761468 0 0 0
194 1 -10.12258303513446 -4.364260624404619 1.6085694153410652 0 0 0
224 1 -2.279392866618635 -1.4055666993279257 4.354832556980831 0 0 0
196 1 -7.516089021797141 -4.263424458514693 1.4078097141817723 0 0 0
213 1 -6.169528362535523 -5.726725369782014 2.8473419424068007 0 0 0
195 1 -8.780091324359859 -6.018880629150506 0.17503332306414812 0 0 0
197 1 -6.222992083510554 -5.995130670119006 0.05462045186235849 0 0 0
198 1 -4.919284931881617 -4.252199263924809 1.2678408284273455 0 0 0
215 1 -3.5950355155973606 -5.776177992551316 2.7854447966072042 0 0 0
200 1 -2.190106013765562 -4.293948744608382 1.3654394157305476 0 0 0
721 2 -0.8757955958472298 -5.804093063910047 2.812639423027613 0 0 0
202 1 -10.226893690942434 -1.6762500032485197 1.789559113993598 0 0 0
321 1 -11.683776308759127 -0.1928883409564631 0.25867724702664124 0 0 0
201 1 -11.642630359931847 -3.0206248680569425 0.14894646188898522 0 0 0
204 1 -7.579391965754973 -1.6642661043772837 1.7292874894643857 0 0 0
325 1 -6.394996419445348 -0.1559005028640046 0.09900712267512311 0 0 0
323 1 -8.988519188984602 -0.22723246340583064 0.23736898210235688 0 0 0
206 1 -4.974725422708759 -1.5801939616832121 1.5737371449900532 0 0 0
208 1 -2.337392669504058 -1.4575298511947865 1.4661338278527631 0 0 0
729 2 -0.8788168120947166 -2.8566479576282804 2.898363401421268 0 0 0
209 1 -11.443497324591139 -5.981795089615168 3.165490316718536 0 0 0
210 1 -10.092629539180205 -4.579021901576187 4.770264837457261 0 0 0
217 1 -11.618868054319407 -3.1015937755533494 3.289196767295058 0 0 0
211 1 -8.73562253116007 -5.793306695932561 3.0218413012410497 0 0 0
221 1 -6.185239847690167 -3.109370352130224 3.2711247303112825 0 0 0
219 1 -8.809559745250432 -3.099464661532661 3.3194982415837706 0 0 0
212 1 -7.4020452780194494 -4.622763363534489 4.857977435304706 0 0 0
223 2 -3.7181033827125134 -3.0478952602032408 3.1144509687749204 0 0 0
214 2 -4.8432586675505656 -4.645792344629115 4.829206153531606 0 0 0
216 1 -2.1486123125082464 -4.445935743494369 4.457670223299683 0 0 0
737 2 -0.8253476548862617 -5.921819431916701 5.931225610151295 0 0 0
218 1 -10.218261229454244 -1.504824716364496 4.666492899429108 0 0 0
337 1 -11.643013276728785 -0.06063807221666921 3.1916601232886053 0 0 0
220 1 -7.512947198688624 -1.3577915529962468 4.532350025787727 0 0 0
239 1 -3.5332155030202737 -2.83909583604222 6.02405377172294 0 0 0
222 1 -4.912252279887607 -1.2602904740320056 4.455055937314009 0 0 0
745 2 -0.9768712602916274 -2.8644608507276117 5.843011399301191 0 0 0
226 2 -10.07731374093755 -4.370029165204381 7.535450721054 0 0 0
256 1 -1.9578316109727305 -1.4026378438175389 10.701090426663072 0 0 0
233 1 -11.673346607454958 -3.108853620876206 6.149324923757102 0 0 0
241 1 -11.548910288884512 -5.996895858926262 9.034822022696611 0 0 0
228 1 -7.436930377369045 -4.30660253604193 7.610398449185556 0 0 0
230 1 -4.748075334540862 -4.32689542846204 7.613049715142332 0 0 0
232 1 -1.9668467750985625 -4.3538036553234445 7.582478714428547 0 0 0
234 1 -10.291432177389362 -1.6174671463512569 7.716614032059895 0 0 0
353 1 -11.763862905616234 -0.11010503656682269 6.209234340483028 0 0 0
236 1 -7.508538241589006 -1.5847864235938125 7.86407610262345 0 0 0
355 1 -8.884204371899337 -0.19280244606736827 6.370437671746649 0 0 0
357 1 -6.191128646741788 -0.1605564927639929 6.371990942798058 0 0 0
235 1 -8.776881901175038 -2.876917011017002 6.0886028845014115 0 0 0
237 1 -6.13154624338602 -2.777863977231505 6.067378633854908 0 0 0
238 1 -4.782865303584366 -1.617028488657048 7.8363311773758655 0 0 0
359 1 -3.580124962866828 -0.09034283705950334 6.263435963421113 0 0 0
240 1 -2.0239278814418844 -1.4569032713724803 7.693448624726971 0 0 0
249 1 -11.699151928053295 -3.1339669882368826 9.104708816990131 0 0 0
242 1 -10.254662770831311 -4.53862994366211 10.689617607523134 0 0 0
137 1 -11.808623342646209 -3.071644732208848 12.039210371005511 0 0 0
129 1 -11.689486866267107 -6.039788043949795 12.064707648640645 0 0 0
245 1 -6.09522007388394 -5.827822469186524 9.052525811069827 0 0 0
243 1 -8.833450297119906 -5.859302169316989 9.071671747306377 0 0 0
244 1 -7.497472872115637 -4.505337566652722 10.706066166288114 0 0 0
251 1 -8.907963828508482 -3.034387021247548 9.272684258233529 0 0 0
253 1 -6.132874074232561 -3.0235155406028604 9.313595834283483 0 0 0
247 1 -3.3500054234998324 -5.807683763318405 9.133264144351148 0 0 0
246 1 -4.736228170746348 -4.465469549824968 10.73946411070734 0 0 0
753 2 -0.6569516665924311 -5.840668279674752 9.152182544032419 0 0 0
248 1 -1.8838191372222848 -4.403533953073764 10.757084662014108 0 0 0
250 1 -10.370351541430834 -1.5271230127785875 10.615992354853367 0 0 0
369 1 -11.793154437849617 -0.08935871068804717 9.107813219742908 0 0 0
257 1 -11.897040100649116 -0.09848115105870571 12.090883072686712 0 0 0
252 1 -7.57439166026842 -1.4618798291467565 10.67861736276079 0 0 0
371 1 -8.981112883200627 -0.02175259594642633 9.167938945526014 0 0 0
255 1 -3.346718200044977 -2.9881180375375305 9.26981975782811 0 0 0
254 1 -4.788723026817579 -1.4540640247078298 10.685614385841443 0 0 0
761 2 -0.5922926760777745 -2.843615030563487 9.206863621409449 0 0 0
258 1 -10.50513601480578 1.4548561492712795 -10.608609650893687 0 0 0
281 1 -11.927990934220869 2.8921761711015077 -9.059511895966278 0 0 0
260 1 -7.721099024616702 1.4521429836716944 -10.555882056555497 0 0 0
267 1 -9.054367697839108 2.9380691519208555 -12.070966581622498 0 0 0
269 1 -6.325247067421221 2.9553844657127235 -12.015085715082419 0 0 0
262 1 -4.944205086296365 1.4977863753051956 -10.502910436552128 0 0 0
264 2 -2.291324040773776 1.5609382465786323 -10.46258583088072 0 0 0
769 2 -0.7053369100402442 0.07523085361762978 -11.933444744347115 0 0 0
266 1 -10.401686658343328 4.343652528973107 -10.475517660586686 0 0 0
385 1 -11.666036374917224 6.048298424931406 -11.953780962925011 0 0 0
387 1 -8.983245085074206 5.829327274381604 -11.87449969150804 0 0 0
268 1 -7.7391725180320075 4.28889491979404 -10.410285232591827 0 0 0
389 1 -6.344226492475718 5.762371092998036 -11.791502214143167 0 0 0
405 1 -6.394903393066302 6.038036558382583 -9.115826687060967 0 0 0
270 1 -4.999860768581793 4.324172877854479 -10.396551573393491 0 0 0
391 1 -3.6555818777203326 5.837863991558148 -11.88398572067599 0 0 0
271 1 -3.60011991764694 3.0341107271687933 -12.019346163088418 0 0 0
272 1 -2.193499414221542 4.464363684549221 -10.425459184633503 0 0 0
777 2 -0.8291759226185569 3.0878648150661476 -11.984243534450224 0 0 0
897 2 -0.9325390852202667 5.992294299330439 -11.906464887308472 0 0 0
274 1 -10.548102665842976 1.33904503096771 -7.5892079625087705 0 0 0
283 1 -9.150893235459838 2.826501431260113 -8.993697249175955 0 0 0
299 1 -9.172016214682499 3.009996385647191 -6.220871429281601 0 0 0
277 1 -6.332620211439189 0.0007217827246436537 -9.07442901543958 0 0 0
276 1 -7.784229457014404 1.3723222052130235 -7.542883854502881 0 0 0
285 1 -6.403288269466947 2.87501811560436 -8.961977210671533 0 0 0
301 1 -6.480705193632852 3.0077063085744724 -6.137861882486065 0 0 0
279 1 -3.5598850970345417 0.03994487563767306 -8.958865714136206 0 0 0
278 1 -5.034024492535462 1.4702788078928801 -7.5047046431463205 0 0 0
287 1 -3.642044182605642 2.973410587697806 -8.891114747989734 0 0 0
785 2 -0.7954700979030167 0.08603251798674645 -8.880125579226895 0 0 0
280 1 -2.1599962567942517 1.5376728197758427 -7.407208585202479 0 0 0
282 1 -10.440176669612622 4.590168184643507 -7.720595362582282 0 0 0
297 1 -11.800952410947705 3.058539689004916 -6.240131462265664 0 0 0
284 1 -7.8046914653103014 4.527518018294059 -7.653737971588393 0 0 0
286 1 -5.0814129108344135 4.491050937646819 -7.546106100358809 0 0 0
407 1 -3.7420576699201544 5.977613321833276 -9.053504832493498 0 0 0
913 2 -1.056107459486801 6.000903331616043 -8.884124923551868 0 0 0
793 2 -0.9075579381208942 3.103971020302092 -8.852654881704833 0 0 0
288 1 -2.298671381974236 4.509636232565339 -7.421342408638571 0 0 0
265 1 -11.848544995549693 3.011586250529585 -12.093217444991947 0 0 1
290 1 -10.494569605038304 1.4991988264142653 -4.688870133381977 0 0 0
307 1 -9.129303181414862 0.04550381631820456 -3.160657156732424 0 0 0
292 1 -7.831396135984233 1.5171606436941756 -4.695013021800836 0 0 0
309 1 -6.453497099966129 0.06178766219403634 -3.1836707355351814 0 0 0
294 1 -5.117994727810279 1.552608614879447 -4.601111410764213 0 0 0
311 1 -3.707006821823592 0.08739704195841544 -3.125140733546721 0 0 0
295 2 -3.6956290935120717 0.03653951268783513 -6.00704731282629 0 0 0
296 1 -2.2623573428942105 1.5528615711296891 -4.520839242879866 0 0 0
801 2 -0.811141190981083 0.1269721879609891 -5.935895250177646 0 0 0
298 1 -10.367367467903962 4.250317426965512 -4.371260325543251 0 0 0
417 1 -11.662019203091745 6.0036259698733545 -5.943765893856407 0 0 0
419 1 -9.135554437436051 5.812573779443715 -5.868464207525631 0 0 0
300 1 -7.821092191786825 4.271665491914287 -4.411853286160015 0 0 0
421 1 -6.477471631173171 5.81489041170486 -5.891464872694726 0 0 0
302 1 -5.158809618135378 4.330256975923699 -4.4355084570855805 0 0 0
423 1 -3.770228381430396 5.832945766876371 -5.851705889096254 0 0 0
303 1 -3.7234976688224006 3.009410544341937 -6.014342045957161 0 0 0
304 1 -2.3249093698044336 4.466443390023595 -4.425216914248013 0 0 0
809 2 -0.9723153390618166 3.082920270141796 -5.873265860568422 0 0 0
929 2 -1.0825700864656056 5.9885885869838225 -5.892091449884564 0 0 0
306 1 -10.329073242551338 1.2753315869787498 -1.229631066042533 0 0 0
313 1 -11.689660360538555 2.793080870476152 -2.7769404162876064 0 0 0
315 1 -9.105690960184539 2.7313929194163897 -2.856133707952979 0 0 0
317 1 -6.516430106589508 2.80360819353702 -2.9344227427976737 0 0 0
308 1 -7.769348237731585 1.270216202461263 -1.364491339103036 0 0 0
319 1 -3.7976231486272116 2.9196945885134102 -3.001713870383167 0 0 0
310 1 -5.127763708487592 1.384621861319594 -1.4951883385216667 0 0 0
817 2 -0.9813578288364805 0.12612305124128695 -3.0203737426683044 0 0 0
312 1 -2.374150973702795 1.5442202568171703 -1.533107493509122 0 0 0
833 2 -1.036735293292974 0.18481035916939909 -0.06201873394343089 0 0 0
314 1 -10.231725149196846 4.676531390496494 -1.6549488641737582 0 0 0
333 1 -6.489189921650303 3.0953587090320247 -0.19727459567523647 0 0 0
331 1 -9.03706157149276 3.1316360273635886 -0.11566624216619757 0 0 0
316 1 -7.75818700805949 4.652263574433985 -1.7236611569726237 0 0 0
335 1 -3.8401199119946394 3.0534153505356256 -0.16316772903099594 0 0 0
318 1 -5.190614627531823 4.561591676223373 -1.694839069947261 0 0 0
961 2 -1.1953964197398894 5.823262181204808 -0.05408854513542659 0 0 0
841 1 -0.8502607626043389 3.0757864795901417 -0.05822500573561388 0 0 0
825 2 -1.0341743852756502 3.0752521769810484 -2.910197952111594 0 0 0
320 1 -2.4735452848210175 4.508728052230543 -1.5852980180350669 0 0 0
945 2 -1.1470579788683453 5.998113060851594 -2.994586285890005 0 0 0
322 1 -10.28370472085503 1.5400660500316214 1.4952933127928827 0 0 0
324 1 -7.721214548965805 1.6006430964836242 1.408037824899199 0 0 0
341 1 -6.33596341036548 0.13069089279564047 2.913105857669293 0 0 0
326 1 -5.1371154079383965 1.6169876732019772 1.3164001498182862 0 0 0
343 1 -3.768917550316243 0.1913609583697556 2.8264564106497607 0 0 0
328 1 -2.403849823517283 1.6029523789935032 1.3736516998313157 0 0 0
849 2 -1.0886001716852516 0.10212517572673868 2.8621229988326045 0 0 0
330 1 -10.170915609622341 4.270965364064006 1.8902216221029442 0 0 0
449 1 -11.483446741582222 5.994434126272592 0.29431799506833467 0 0 0
329 1 -11.618771454388552 3.113155266598062 0.09623711302074532 0 0 0
332 1 -7.678456473961709 4.222072989501367 1.803786345243881 0 0 0
451 1 -8.946155694960801 5.770445668252825 0.27425824007654104 0 0 0
453 1 -6.446265079799192 5.7674821747226845 0.18275666997145834 0 0 0
334 1 -5.170637824525189 4.2556915991226045 1.6413312529756277 0 0 0
455 1 -3.89515050764271 5.82402762416489 0.03606160443324433 0 0 0
336 1 -2.5064405026145744 4.4198495210691 1.4731612508034462 0 0 0
857 2 -1.1211901594316882 3.0237549660876453 2.847446294089826 0 0 0
977 2 -1.2375912187305091 5.965041318231604 2.844966166301986 0 0 0
345 1 -11.595266753883198 2.7916295411996246 3.3312451363537643 0 0 0
338 2 -10.198041649416158 1.2159653180350527 4.903053603897806 0 0 0
339 1 -8.946532592986053 0.05636004215454609 3.0234677200138607 0 0 0
347 1 -8.986335294847903 2.722127973548238 3.3913587515170738 0 0 0
340 1 -7.592309357010858 1.2431993837476023 4.870177621918739 0 0 0
349 1 -6.393399469857083 2.7089587345725987 3.2899632016267506 0 0 0
351 1 -3.8375870232738944 2.8637498538458153 3.0994478580708638 0 0 0
342 1 -4.980286738194448 1.3340473192051479 4.769639997507746 0 0 0
344 1 -2.3749009268669257 1.4573295649853577 4.458224137995577 0 0 0
865 2 -1.0702551224398011 0.08687153995772101 5.9077150476521645 0 0 0
346 1 -10.192409220923889 4.685947975656387 4.549643463019277 0 0 0
993 2 -1.2543381074208484 5.917046652460701 5.9049957093162835 0 0 0
348 1 -7.633448228647581 4.601916948437172 4.487580893810941 0 0 0
367 1 -3.692148060516263 3.09481628751432 6.01211200134485 0 0 0
350 1 -5.106862083489853 4.5834227133148 4.450535584301026 0 0 0
352 1 -2.468557579730486 4.530574885721123 4.368444770948865 0 0 0
873 2 -1.1890746650077988 3.004957556011796 5.821730421689197 0 0 0
354 1 -10.323729257748099 1.480768452644232 7.649295143216732 0 0 0
361 1 -11.615975840015784 3.025300423956936 6.06704297112178 0 0 0
356 1 -7.58766781433352 1.5014486182680638 7.659019000918513 0 0 0
358 2 -4.87673254361659 1.609166662035574 7.557997667908527 0 0 0
360 1 -2.1609608108035254 1.5844410331715433 7.637382050134857 0 0 0
362 1 -10.214945556259007 4.308825042610106 7.82370959202553 0 0 0
364 1 -7.586405559295406 4.242847538868705 7.923938318027907 0 0 0
485 1 -6.3073141649357 5.732139482354359 6.398264968419478 0 0 0
483 1 -8.858102790232241 5.778778144537653 6.3987653504115665 0 0 0
363 1 -8.936993561254713 3.0562041991740494 6.085831734482984 0 0 0
487 1 -3.7431666771046577 5.7885590707095975 6.291685520844744 0 0 0
366 1 -4.962096079961985 4.284498736307585 7.880778992762841 0 0 0
368 1 -2.210667075590511 4.42784086809555 7.731598768058975 0 0 0
370 1 -10.432599078700978 1.3797134172587275 10.702368821216618 0 0 0
377 1 -11.76707918628884 2.902217031400528 9.180128161898526 0 0 0
1009 2 -0.8406934128706207 5.980612888706312 9.249799150914006 0 0 0
379 1 -8.977953038673698 2.7904800415506275 9.327522094312343 0 0 0
372 1 -7.637456433928596 1.330504725811595 10.78732672432979 0 0 0
381 1 -6.241834588372396 2.7335644999381867 9.367964319380398 0 0 0
373 1 -6.15598459212918 0.02786129358399433 9.191415735120847 0 0 0