LAMMPS data file via write_data, version 2 Aug 2023, timestep = 10000, units = metal

1024 atoms
2 atom types

-11.99252066852048 11.99252066852048 xlo xhi
-11.99252066852048 11.99252066852048 ylo yhi
-11.99252066852048 11.99252066852048 zlo zhi

Masses

1 55.847
2 26.982

Atoms # atomic

2 2 -10.815322879204004 -10.480225877501217 -10.654029775899163 0 0 0
19 1 -9.562217763239733 -11.923089193876601 -9.135367952564708 0 0 0
4 1 -8.280606851229127 -10.343739530103658 -10.689654608405693 0 0 0
21 2 -6.946323271526349 -11.846332221525538 -9.13981539666382 0 0 0
6 1 -5.594245802892847 -10.379490157457946 -10.634210648572346 0 0 0
31 1 -4.215619835368081 -9.015283868561927 -9.013387952735062 0 0 0
8 1 -2.8327158113040682 -10.454323813417744 -10.637689242908253 0 0 0
537 2 -1.5022555534345423 -9.051314613562957 -9.19633539149421 0 0 0
529 2 -1.5401622605736223 -11.93053584899748 -9.242759691231807 0 0 0
10 1 -11.013314035355023 -7.652437249463295 -10.403353546518954 0 0 0
133 2 -7.114570144630513 -6.07435422000387 -11.803890570692428 0 0 0
12 1 -8.436294138491908 -7.632241138716609 -10.397328941634443 0 0 0
14 1 -5.65300262696823 -7.5574787936271335 -10.384761670143693 0 0 0
16 1 -2.7839399807333836 -7.49188873316193 -10.604292185052046 0 0 0
657 2 -1.264715072463797 -6.077028249457105 -9.237646125792669 0 0 0
27 2 -9.620622301684481 -9.270360081617001 -8.784658544399582 0 0 0
18 1 -10.78406104906489 -10.793399686930906 -7.247318548657239 0 0 0
29 1 -6.937693478719571 -9.120093235349087 -8.887295996319498 0 0 0
20 1 -8.16050263026436 -10.7496641530786 -7.287111601165446 0 0 0
22 1 -5.538583727612281 -10.62622437609019 -7.412499966976295 0 0 0
24 1 -2.7882159486889284 -10.545953363266296 -7.589393006435598 0 0 0
553 2 -1.3622892500949506 -9.011160548196742 -6.219252125545651 0 0 0
545 2 -1.50689162285246 -11.940765182666652 -6.028237726240896 0 0 0
43 2 -9.567828909374342 -8.834379643253829 -6.113761547709295 0 0 0
26 1 -10.998960603176172 -7.4220261383929635 -7.572342842787268 0 0 0
28 2 -8.24637827638283 -7.246177509641987 -7.753960123856521 0 0 0
45 1 -6.930312376612014 -8.742588778536303 -6.222643319826976 0 0 0
30 1 -5.551856284925578 -7.300911239339678 -7.679585208408556 0 0 0
47 1 -4.161297273563051 -8.823354187444343 -6.247557804835193 0 0 0
32 1 -2.651719194434896 -7.446326631295274 -7.690102691969737 0 0 0
135 1 -4.336026038272505 -6.0163375960906915 -11.973439961806816 0 0 0
23 1 -4.244522110712485 -11.954041563450865 -9.157555504657784 0 1 0
34 1 -10.67405599059594 -10.433571259000924 -4.54681866609946 0 0 0
51 2 -9.28331782248321 -11.801748580221206 -3.1112151316671968 0 0 0
36 1 -8.110342367633987 -10.28736028608674 -4.673223709501513 0 0 0
53 1 -6.7592639756522415 -11.754721135072037 -3.17565140299464 0 0 0
55 1 -4.26422031008835 -11.705307196801751 -3.1270239574464256 0 0 0
38 2 -5.475919179982288 -10.205697802969235 -4.738173442848423 0 0 0
40 1 -2.813178809261426 -10.295682599743644 -4.639755948724802 0 0 0
546 2 -0.13020079758704461 -10.277619241421 -4.130077658058444 0 0 0
42 1 -10.827420414424909 -7.651953534725914 -4.336736003368729 0 0 0
44 2 -8.16635755643684 -7.560704481494888 -4.329334730407425 0 0 0
46 1 -5.5210222072262995 -7.439515133952121 -4.548442125886173 0 0 0
48 2 -2.7496005514310697 -7.483559772983026 -4.647394697573634 0 0 0
50 2 -10.586776854327315 -10.605692584436058 -1.1056679208428288 0 0 0
59 1 -9.480874861033943 -9.12290296115075 -2.7441693992599707 0 0 0
61 1 -6.77966786780743 -9.006073151292474 -2.8783406884658898 0 0 0
52 1 -8.01600488655617 -10.636485949989671 -1.1745419106470276 0 0 0
54 2 -5.483513436659586 -10.497864322500327 -1.2918731670971746 0 0 0
56 1 -3.0250928685817704 -10.424795823495309 -1.1307743243718282 0 0 0
561 2 -1.8170882978361502 -11.68141015124913 -2.7490547623329276 0 0 0
58 1 -10.878961349616224 -7.239755912921795 -1.620866540537902 0 0 0
75 1 -9.495965462471549 -8.638879285248118 -0.12311202632627197 0 0 0
60 1 -8.281962278337963 -7.134903067805673 -1.7046325126520019 0 0 0
77 2 -6.978402340569631 -8.580151567140318 -0.17069656762600224 0 0 0
62 1 -5.555891363788322 -7.121321630939744 -1.6465973112141157 0 0 0
63 1 -4.238524751934938 -8.85910508120706 -2.881193218888346 0 0 0
64 1 -2.904108116817683 -7.231514679473719 -1.237621653190901 0 0 0
569 2 -1.7497546872276937 -8.862385656642745 -2.6373843283196607 0 0 0
689 2 -1.5593369185622397 -6.014390691877519 -2.7828408205237003 0 0 0
66 1 -10.738042220156679 -10.310618165185776 1.415833096089467 0 0 0
83 1 -9.467353026568949 -11.879804435933412 2.85665483698399 0 0 0
68 1 -8.165397114073333 -10.185620900875522 1.4506291298619562 0 0 0
70 1 -5.615646349057175 -10.266490929735156 1.4972258830348877 0 0 0
72 1 -2.899599917012733 -10.408931649254631 1.7419680168469882 0 0 0
577 2 -1.6132096311667405 -11.834917598720878 0.31864391339124226 0 0 0
74 1 -10.906779693873824 -7.427176464425387 1.5848028586249987 0 0 0
76 1 -8.280903878989674 -7.45224471282268 1.7569542699338845 0 0 0
78 2 -5.654145077965757 -7.538468307466774 1.887798253464624 0 0 0
79 1 -4.390870767156119 -8.63132963216476 0.062046879883491654 0 0 0
80 1 -2.9214401728912516 -7.318292572174546 1.729628418821574 0 0 0
585 2 -1.698818386459141 -8.853820636033147 0.26859731021702415 0 0 0
82 1 -10.811481584767485 -10.761568171140611 4.633907461297452 0 0 0
91 1 -9.596071925506985 -9.026343264225936 3.231160608887501 0 0 0
85 1 -6.868870620911306 -11.8190560050422 2.994337402272374 0 0 0
93 1 -7.03773719199582 -9.036542933849642 3.328140222686342 0 0 0
84 1 -8.297186396858548 -10.656657629986036 4.76244895518397 0 0 0
86 1 -5.703407869531401 -10.416540017915178 4.818718491517357 0 0 0
87 2 -4.3762710917750764 -11.767316218061517 3.2710823945002434 0 0 0
88 1 -2.829593812102998 -10.383080510649945 4.67102801089038 0 0 0
593 2 -1.5179782924847642 -11.848869619040272 3.2004457801553867 0 0 0
90 2 -11.071417603733988 -7.100909983115075 4.231537655029999 0 0 0
107 2 -9.693386590679152 -8.700293051040658 5.809906565414051 0 0 0
109 1 -7.081385893676025 -8.681177535651784 5.976566977090504 0 0 0
92 1 -8.32780389383761 -7.060284723272623 4.411473577686102 0 0 0
95 1 -4.297416161202852 -8.964208011482349 3.276630049375494 0 0 0
94 1 -5.703750352682739 -7.225381968210027 4.544594880725383 0 0 0
601 2 -1.5954217122810164 -8.827987577702613 3.1715862679452314 0 0 0
96 1 -2.864783624195453 -7.28490821086195 4.597219414427709 0 0 0
98 1 -10.823995676572434 -10.41346469333407 7.215230105995754 0 0 0
115 1 -9.6243066262073 -11.95773843941559 8.763992497546404 0 0 0
100 1 -8.361650557470384 -10.305968492519309 7.372516643294984 0 0 0
117 2 -6.977349869320062 -11.864109751995853 8.823934604571292 0 0 0
102 1 -5.671109805232944 -10.272847083812959 7.365323792493865 0 0 0
119 1 -4.370012942942871 -11.754684356779718 8.906368244272102 0 0 0
103 1 -4.304158742130985 -11.976442587212055 6.091924762320118 0 0 0
104 1 -2.8825756375805787 -10.305057675684994 7.468040604598878 0 0 0
625 2 -1.6157130420343015 -11.8092183906051 8.973481408902572 0 0 0
609 2 -1.5539235330367114 -11.873767129397864 6.058871913587858 0 0 0
106 1 -11.040675102572003 -7.662241340733571 7.738962927309742 0 0 0
108 1 -8.50526449360247 -7.563031482360084 7.700320865781698 0 0 0
110 1 -5.680957286081105 -7.407904040075529 7.641301102484069 0 0 0
111 1 -4.295904477904379 -8.72853915724781 6.039103022422673 0 0 0
112 1 -2.851810792640864 -7.341755663166935 7.594399408258923 0 0 0
617 2 -1.5524691705258118 -8.729325787546951 6.088598200401394 0 0 0
114 2 -10.895891812298219 -10.924052412648527 10.58658229052613 0 0 0
123 1 -9.741368361549146 -9.198142681924372 9.22191410432639 0 0 0
125 1 -7.021978839061478 -9.042166858214335 9.109261131336833 0 0 0
116 1 -8.262635684038548 -10.725132988093291 10.606165734790034 0 0 0
118 2 -5.605229619222214 -10.485830443996162 10.651216769250128 0 0 0
120 1 -2.8615346585411805 -10.409643621932593 10.482117657585087 0 0 0
521 2 -1.4774276239002273 -9.009497773098047 11.86767194303679 0 0 0
513 2 -1.562584164971071 -11.883343502770975 11.86162942873364 0 0 0
122 1 -11.164709231383819 -7.380646350857942 10.45546060690584 0 0 0
11 1 -9.715048181115678 -8.923004550871351 11.766635373711438 0 0 0
13 1 -6.993701039354825 -8.783624345043544 11.848887189376036 0 0 0
124 1 -8.48682862881779 -7.305770432127952 10.406601592455145 0 0 0
127 1 -4.331498512599087 -8.915219960193351 9.069198439613217 0 0 0
15 1 -4.309987570049214 -8.813881931317677 11.89519663503516 0 0 0
126 2 -5.765230317796235 -7.258317896776265 10.309660500124876 0 0 0
633 2 -1.5380336445814906 -8.899142047632331 8.991404973762428 0 0 0
128 2 -2.8389889845919143 -7.304774066718809 10.530679398391781 0 0 0
130 1 -11.330134056105093 -4.391846711164997 -10.452044665526728 0 0 0
147 1 -9.777572691425226 -5.813690757925247 -9.053246332381228 0 0 0
131 1 -9.837313257829758 -5.981543317196453 -11.839286003048471 0 0 0
132 2 -8.556216265308615 -4.230262494539534 -10.403342392091012 0 0 0
149 1 -7.014505248703312 -5.7463971171087955 -9.112243494129304 0 0 0
134 2 -5.606132988353589 -4.377151477270011 -10.615489867040017 0 0 0
151 1 -4.165779837045435 -5.943822352623504 -9.17176877876034 0 0 0
159 1 -4.0471246843418145 -3.1463412397894808 -9.137535736424361 0 0 0
160 1 -2.5565784774302194 -1.5988035589200082 -7.658228830507329 0 0 0
136 2 -2.7029238643066753 -4.5949887096622355 -10.689578052590406 0 0 0
665 2 -1.2112901629828352 -3.1309133258668007 -9.041980439124764 0 0 0
138 1 -11.349695059515032 -1.440935412896903 -10.362155060266879 0 0 0
139 1 -9.999652555742554 -2.921012908600073 -11.950586537727617 0 0 0
140 1 -8.561286940168669 -1.5109387733027784 -10.42321095317207 0 0 0
261 1 -6.9602625292530504 -0.0958474853834352 -11.768235508534335 0 0 0
157 1 -6.955160243721259 -2.977193137859483 -9.049444069677206 0 0 0
141 1 -7.072711722384221 -2.9181221079303583 -11.876103042803276 0 0 0
142 2 -5.280394165600179 -1.5428079100498013 -10.424579511308337 0 0 0
263 1 -4.0168798464444775 -0.061312599818481625 -11.903068369350159 0 0 0
143 1 -4.133026694688353 -3.0189526117835292 -11.963047410757687 0 0 0
144 1 -2.490423158925939 -1.622222707868218 -10.526411653872943 0 0 0
785 2 -1.056084773976446 -0.2404565641499473 -9.120367373910751 0 0 0
146 1 -11.205359409607752 -4.4745609049118675 -7.450406216151653 0 0 0
148 2 -8.413178064486612 -4.334506077313104 -7.437799577896251 0 0 0
165 1 -6.957555238272944 -5.914542248684269 -6.067908653518523 0 0 0
150 2 -5.490462022461351 -4.496673916885282 -7.606596526276375 0 0 0
167 1 -4.071234047703888 -5.9765061685328735 -6.124045445519001 0 0 0
175 2 -3.9275236404965423 -3.0636844831089443 -6.195447521465088 0 0 0
673 2 -1.2120880870133517 -5.93308507845376 -6.203584738965123 0 0 0
152 1 -2.5758449738086404 -4.601680505251405 -7.67291166146185 0 0 0
681 1 -0.9853453012673805 -3.120955371245847 -6.252838767826983 0 0 0
155 1 -9.927920477839537 -2.921975905929964 -8.90492485634649 0 0 0
154 1 -11.251500418383053 -1.4057933323083114 -7.4759410054731195 0 0 0
171 1 -9.797057494898855 -2.827010185639478 -6.073584028937792 0 0 0
277 2 -7.00640359184161 -0.18515780912977334 -9.003498013139861 0 0 0
173 1 -6.822093768110004 -2.9179706593369494 -6.12582483297779 0 0 0
156 1 -8.368154266696342 -1.5038863560303057 -7.51241185682838 0 0 0
293 1 -6.826198899785261 -0.0833992057714451 -6.128680245577809 0 0 0
158 1 -5.397895898887067 -1.580146770920771 -7.638359428046312 0 0 0
295 2 -4.047681457444266 -0.13124247729829655 -6.2704706872182445 0 0 0
801 2 -1.09730178494665 -0.39714024676560516 -6.247743417613449 0 0 0
279 1 -3.9518229120697366 -0.011326883226946163 -9.08573885352339 0 0 0
162 2 -11.144176809453995 -4.220841130828205 -4.687645167776282 0 0 0
179 2 -9.692324498585432 -5.681688164932948 -3.2406340669060882 0 0 0
163 1 -9.660492610407848 -5.98305136563638 -5.9683452375016435 0 0 0
181 1 -6.915940177679822 -5.722924664004691 -3.2410723686113507 0 0 0
164 1 -8.295480852178324 -4.25395701797049 -4.7165502374236485 0 0 0
183 1 -4.107081003257892 -5.900345906126132 -3.177512061295526 0 0 0
166 1 -5.4096877556194105 -4.388816250168379 -4.6807760511741 0 0 0
168 1 -2.580702807939064 -4.495506448143966 -4.623760192615159 0 0 0
170 1 -11.18473500044351 -1.4686285300061523 -4.526155778516922 0 0 0
291 1 -9.713896284882255 -0.024741105138967434 -5.993153096159943 0 0 0
187 1 -9.680835889735544 -2.9020127291346722 -3.078756143428112 0 0 0
172 1 -8.240552787325724 -1.481429558969759 -4.603878504613598 0 0 0
189 1 -6.854400277441151 -2.9771863743931974 -3.133328648698685 0 0 0
309 1 -6.7791900044322375 -0.004538701079039843 -3.202213266638635 0 0 0
174 1 -5.314021314322054 -1.565367131882964 -4.604154383323656 0 0 0
176 1 -2.6095570055155908 -1.620121312715536 -4.5903867616782925 0 0 0
817 2 -1.2144505574630606 -0.08041578641015658 -3.0077239103715905 0 0 0
178 1 -11.065018669754846 -4.430995540092079 -1.5426542909897871 0 0 0
180 2 -8.220397528203502 -4.37784260495895 -1.4431291981357601 0 0 0
182 1 -5.588243244453251 -4.508681356142656 -1.4752370728917352 0 0 0
191 2 -4.178490399226988 -3.176667105892844 -2.9084171753214716 0 0 0
697 2 -1.413160115552089 -3.1304369217109222 -2.846582173179025 0 0 0
184 1 -2.764688290147629 -4.49722246554751 -1.384611865494177 0 0 0
203 1 -9.710688746104298 -2.797062347418483 -0.19123166640757125 0 0 0
186 1 -11.151378829595403 -1.4387030350685663 -1.663106360228052 0 0 0
323 1 -9.619360204581357 -0.03109366358845849 -0.2317432403479398 0 0 0
205 1 -6.8191741423752354 -2.7568768192985353 -0.13706850128697978 0 0 0
188 1 -8.195363391713586 -1.4574341115614378 -1.6828735873656804 0 0 0
325 1 -6.759725373580689 -0.04541507794675569 -0.15479917600661283 0 0 0
190 1 -5.380210759393069 -1.4019027957333614 -1.7739855861765554 0 0 0
207 1 -4.188668653547011 -2.867798848399828 -0.13616471723219073 0 0 0
327 2 -4.132654760895697 -0.10495821875413941 -0.02137105673843919 0 0 0
192 1 -2.702072348937802 -1.4309079349463516 -1.6230226479423215 0 0 0
194 1 -11.133830513221294 -4.263079245941894 1.2232719768564417 0 0 0
211 1 -9.701438498700826 -5.554728486139379 2.851091686896812 0 0 0
195 1 -9.654061560214645 -5.886068059725877 0.06905357900427886 0 0 0
196 1 -8.296109724043543 -4.18125160011304 1.2747738732040563 0 0 0
213 2 -7.025823504482501 -5.546795444370157 2.83606925193235 0 0 0
197 1 -6.916225760854841 -5.969798196589689 0.15847698680580505 0 0 0
198 1 -5.591400945276961 -4.14520406157654 1.488829241950669 0 0 0
199 2 -4.389758288650932 -5.805571839697209 0.24245726662100955 0 0 0
200 1 -2.8634826000062805 -4.389016036010189 1.5770550587869352 0 0 0
705 2 -1.4978566879180826 -5.9223448513504495 0.2360772643955462 0 0 0
713 2 -1.5431973312999816 -2.9963821572225964 0.1369087436958796 0 0 0
202 2 -11.249949264536255 -1.4079444683338729 1.2177629991441044 0 0 0
219 2 -9.739797859712938 -2.837110483230569 2.7606199890906478 0 0 0
224 1 -2.8144478878968764 -1.6759445866110985 4.793741333564963 0 0 0
204 1 -8.248246263662978 -1.4032873290473045 1.3786851112034497 0 0 0
206 1 -5.526716063798973 -1.4408556735743265 1.6010423868131318 0 0 0
208 1 -2.796970414841134 -1.5300788239420282 1.6012476182847848 0 0 0
210 2 -11.141737672268782 -4.239815159997351 4.513553727038201 0 0 0
212 2 -8.433831576659074 -4.2428104303874 4.693056292500215 0 0 0
215 1 -4.335881199658419 -5.706124727078252 3.123420360639568 0 0 0
214 1 -5.741645540474563 -4.355322807825451 4.713952131681331 0 0 0
721 2 -1.5836284194877965 -5.768103055641758 3.1845109350199254 0 0 0
729 1 -1.2798730817486321 -3.0432624930860483 3.2289162763223356 0 0 0
216 1 -2.9234768814218026 -4.346628901609237 4.73509655314933 0 0 0
218 1 -11.100962428408948 -1.4012330590285618 4.473170952298625 0 0 0
221 1 -7.043863795963311 -2.853934739094477 3.09007229323275 0 0 0
341 1 -6.969457842212127 -0.0567868227770675 3.1905378708422765 0 0 0
220 1 -8.517898843354317 -1.450353361643084 4.626859196774175 0 0 0
222 1 -5.616947911332406 -1.5497549075399157 4.696021906098405 0 0 0
223 2 -4.228514796843773 -2.92522542660386 3.1125885840751253 0 0 0
343 1 -4.174029770569371 -0.14562343104249734 3.3129456525095167 0 0 0
849 2 -1.4300049363188143 -0.3135444821887322 3.259718544801226 0 0 0
833 2 -1.3812587435548487 -0.003582012480199602 0.07960417589449557 0 0 0
226 2 -11.363169076546981 -4.103930737770768 7.810576504602409 0 0 0
227 1 -9.859941456318452 -5.862757620128717 6.219425775577568 0 0 0
228 2 -8.5302460536477 -4.136799941091978 7.6292428214143415 0 0 0
245 1 -7.204802322427765 -5.805674497266803 8.967550536868787 0 0 0
229 2 -7.118745081208895 -5.980473980078517 6.292765445539044 0 0 0
230 1 -5.740354983426051 -4.387733551044702 7.666430483196462 0 0 0
231 1 -4.328455114141913 -5.873501181039796 6.156117205988255 0 0 0
232 1 -2.783386158919621 -4.393658515609424 7.555574234233906 0 0 0
737 2 -1.4909207366459385 -5.885636945789061 6.110797372892185 0 0 0
745 2 -1.2726287934448188 -3.0501472958785163 6.067256807319038 0 0 0
234 1 -11.391549378170359 -1.358473362656162 7.7809206510965225 0 0 0
235 1 -9.976993688139679 -2.8346254331996543 6.226944041921832 0 0 0
236 1 -8.513045950129015 -1.4103470594227492 7.76223531297138 0 0 0
237 1 -7.1155869479193585 -2.8248999402088826 6.203581583543318 0 0 0
357 1 -7.074835731390229 -0.1169116157320943 6.187745792414071 0 0 0
239 2 -4.407833749814142 -2.9343135692078053 6.348532042994551 0 0 0
238 1 -5.6793996958706545 -1.4506390347018008 7.767491740877112 0 0 0
359 1 -4.151085357869908 -0.1461950729087233 6.227186429384862 0 0 0
240 1 -2.7077000190052503 -1.580805379161338 7.650383244053094 0 0 0
865 2 -1.3499579530714705 -0.18659375646324716 6.214180109792547 0 0 0
243 1 -9.899250682916124 -5.77859778093918 8.966543630663903 0 0 0
242 1 -11.321407172178509 -4.559867271289803 10.656925730972594 0 0 0
244 2 -8.524011383339811 -4.390453602276565 10.605130583975054 0 0 0
247 1 -4.254962472873165 -5.849561529996299 9.043870957988213 0 0 0
246 1 -5.719726774105408 -4.456135990281255 10.576722168694127 0 0 0
248 1 -2.764904780261036 -4.4965049903120216 10.535919429581787 0 0 0
753 2 -1.3634363095571336 -5.904571813143344 9.023328417161016 0 0 0
641 1 -1.0811169905416378 -5.952689807465632 11.928306209865578 0 0 0
251 1 -9.95704267537822 -2.8383814476017375 9.278525891367993 0 0 0
250 2 -11.35610246646458 -1.2070963333124183 10.700923737556813 0 0 0
253 1 -7.127532287950918 -2.913520534850316 9.205798111486839 0 0 0
252 1 -8.50025100952299 -1.3974975593366774 10.71307584662457 0 0 0
375 2 -4.122972060076372 -0.09826213225652201 9.174298412978137 0 0 0
255 1 -4.225109802662736 -3.0069801201259927 9.145096791684445 0 0 0
254 2 -5.623532085231595 -1.4975865127203296 10.628682240765722 0 0 0
649 2 -1.183054830860691 -3.037095043521939 11.931355928921482 0 0 0
769 2 -1.0961847556620483 -0.20315140289073894 11.990774955636095 0 0 0
256 1 -2.626542663999226 -1.5453741476193723 10.531122956869435 0 0 0
761 2 -1.3865392557805643 -3.011662767970435 9.027035544131714 0 0 0
881 2 -1.1655205793789725 -0.14983481179991676 9.124094612464186 0 0 0
355 1 -9.913878330229766 -0.015089495268566115 6.256200140377378 0 0 0
258 1 -11.266762316085538 1.609664865998275 -10.284764328336333 0 0 0
259 1 -9.945637213506792 0.06840362487957001 -11.739345126256827 0 0 0
260 1 -8.369034395324016 1.5019575815013795 -10.319625093869941 0 0 0
269 1 -6.933644079071515 2.9390205304729777 -11.821037431166424 0 0 0
262 2 -5.514824808419056 1.43671763920571 -10.50250146141774 0 0 0
288 1 -2.505607001900164 4.5430950310982965 -7.5668566062843965 0 0 0
271 1 -3.988397591583352 2.8869695424358737 -11.909790496161078 0 0 0
264 2 -2.4961324014026314 1.4307358069425455 -10.478970952564532 0 0 0
777 2 -1.0269794481301198 2.8799072312017358 -11.963332601658678 0 0 0
267 1 -9.885714340505215 3.0152485874269215 -11.777653017386287 0 0 0
266 1 -11.169539860198395 4.451159368130422 -10.143584395561739 0 0 0
387 1 -9.830806885266556 5.737697694419077 -11.8320490079938 0 0 0
268 1 -8.364209915427837 4.436037424611623 -10.384653719991096 0 0 0
389 1 -6.9138842378263545 5.771450839631821 -11.932730848120702 0 0 0
270 2 -5.35539258481876 4.52039988703709 -10.534788012260814 0 0 0
809 1 -1.007752009054754 3.0354057431916 -6.1485519749824045 0 0 0
272 1 -2.4572301157058254 4.391821072981361 -10.468309383075571 0 0 0
274 1 -11.126037956294264 1.4743865513323415 -7.402883407672395 0 0 0
283 1 -9.734538434440262 2.9835836600159973 -8.824519598099823 0 0 0
275 1 -9.83717305789259 0.0060629085427449355 -8.941075809180605 0 0 0
276 1 -8.300457838700824 1.3946850593507691 -7.538521728529441 0 0 0
301 1 -6.885661177724908 2.8651044938962986 -6.161513803554702 0 0 0
287 2 -3.9367815720547465 2.9705836299755 -8.977627944587356 0 0 0
278 1 -5.444463126312574 1.4449947623437767 -7.645023459906216 0 0 0
303 2 -3.7598868030611667 2.787898925135409 -6.138877111495628 0 0 0
793 2 -0.902328268865229 2.9604737792179527 -8.873731572713886 0 0 0
280 1 -2.3730288290290984 1.3780839606409345 -7.609488859576233 0 0 0
403 1 -9.634701600556308 5.955142681033826 -8.875976466241557 0 0 0
282 1 -11.07063809994728 4.513473314821518 -7.352891257469602 0 0 0
405 1 -6.86174177127944 5.930504584267219 -8.987763326778374 0 0 0
285 2 -6.963305362712514 3.0963134675686654 -8.90551524348177 0 0 0
284 1 -8.24735027775453 4.496863527489015 -7.414510245350862 0 0 0
286 1 -5.318072948645773 4.386753589842031 -7.498467948346454 0 0 0
290 1 -11.03433485520401 1.5085510455700597 -4.514301438457645 0 0 0
307 2 -9.671968988114731 0.009362347943854576 -3.102750267280166 0 0 0
315 1 -9.521268765874396 2.9145867174021247 -3.024776911751546 0 0 0
299 2 -9.656592128764519 2.9622600778366106 -5.983998418024279 0 0 0
292 1 -8.20123892105657 1.4332154936134902 -4.595225552486441 0 0 0
317 1 -6.679893789806718 2.837554874642896 -3.096451915677517 0 0 0
294 1 -5.360873244246729 1.3954524911678416 -4.783023712163788 0 0 0
311 2 -4.027481244430895 0.10101281816045674 -3.2746396852099218 0 0 0
319 1 -3.9432784421354565 2.8386225888128442 -3.2184719790188656 0 0 0
296 1 -2.4446737507811984 1.2162365784930795 -4.772052278637001 0 0 0
825 2 -1.357747919523015 2.9283510959889 -3.3182775102536666 0 0 0
298 1 -10.957798830044709 4.438834686613931 -4.412687000676318 0 0 0
419 1 -9.572715262211961 5.839408250112537 -5.8226610913588805 0 0 0
300 1 -8.10483822523311 4.299153812163763 -4.521859027555598 0 0 0
421 1 -6.651474515147546 5.851554697202208 -5.9095406817329765 0 0 0
437 2 -6.688189086607011 5.901140112243732 -3.2039172505533764 0 0 0
302 2 -5.356570479592659 4.131202362240616 -4.751826303320667 0 0 0
304 1 -2.6156758357300136 4.5445974756426875 -4.6889240639287495 0 0 0
306 1 -11.009939921644353 1.4874433134862137 -1.5808466135433958 0 0 0
331 1 -9.476950139501014 2.8558812124333732 -0.1449702000411713 0 0 0
308 1 -8.116196388800807 1.4112742831043807 -1.6255273364572254 0 0 0
333 1 -6.683669781675259 2.769577303052634 -0.01788569420853059 0 0 0
310 1 -5.304699276626919 1.3762614253514254 -1.6567771802005051 0 0 0
312 1 -2.565602571958254 1.4085950764451938 -1.597470727205375 0 0 0
435 1 -9.349827220168251 5.844272313480559 -3.0122877963684327 0 0 0
314 1 -10.878335463120376 4.406156780273257 -1.511783128125512 0 0 0
316 1 -7.986066810800348 4.320403426670189 -1.545281879297618 0 0 0
439 2 -4.021206266246649 5.820601095404406 -3.106966942488826 0 0 0
318 2 -5.271961361377073 4.174426233553501 -1.437324924279273 0 0 0
945 2 -1.3007951993349505 5.89968221935368 -3.021372166042246 0 0 0
320 1 -2.612111840567659 4.278025660012162 -1.5622971453253278 0 0 0
322 1 -10.985484605598966 1.4343320423751147 1.2416564451618755 0 0 0
347 1 -9.593836522045466 2.7104342721826957 2.973839309094593 0 0 0
324 1 -8.170919920091306 1.3420307540500853 1.3712395075358446 0 0 0
326 2 -5.474017910079284 1.3177739364784766 1.6677172486860332 0 0 0
335 1 -3.9982686333721364 2.727127280746132 0.09771618626159771 0 0 0
328 1 -2.7256301900475974 1.2060600179288887 1.75842705008994 0 0 0
841 1 -1.2448082457856335 2.755364269373616 0.26732148590398735 0 0 0
977 2 -1.360186911956478 5.885722222024612 3.2958733990364073 0 0 0
330 2 -10.824694869461206 4.180136777428111 1.4463412304241101 0 0 0
451 1 -9.425949239644163 5.706736144316022 0.03976049729310536 0 0 0
467 1 -9.459971280959603 5.792153748962297 2.8353595336090986 0 0 0
469 2 -6.767456971925113 5.845539488449588 2.900447197934276 0 0 0
453 1 -6.617434769027582 5.503184880469552 0.27066787784880914 0 0 0
332 1 -8.102877803359391 4.093821218490314 1.59164287116567 0 0 0
334 1 -5.4319577199910904 4.021037961176834 1.8481937175630732 0 0 0
455 1 -3.989720663584182 5.51395674579175 0.36222186912984505 0 0 0
336 2 -2.8028535221222715 4.004174679607334 1.9041128240108876 0 0 0
961 2 -1.4415712871319424 5.566812383680771 0.30301939993872284 0 0 0
338 2 -11.024533739459304 1.4617287818664069 4.530850018940095 0 0 0
340 1 -8.420172024553985 1.3286114593807026 4.7265539631876985 0 0 0
349 1 -6.902338765770532 2.577661284607552 3.230093719146632 0 0 0
351 1 -4.131745246201536 2.621105368502101 3.357619220874031 0 0 0
342 1 -5.554455634934958 1.2859889194769334 4.842693720692479 0 0 0
857 2 -1.152768889816167 2.5903697542076456 3.2322569737152858 0 0 0
344 1 -2.6412180157458804 1.2497937172977787 4.739504143417461 0 0 0
346 1 -10.979546589143114 4.304063595578 4.398290844619461 0 0 0
348 1 -8.253320104232374 4.275865350070419 4.443928319185477 0 0 0
471 1 -4.110926740772554 5.836904996223912 3.113713312177687 0 0 0
350 1 -5.562874315239632 4.268639284387086 4.556756590990899 0 0 0
352 1 -2.6021647671761032 4.261779044894711 4.667682010428994 0 0 0
339 2 -9.660793864786664 0.013130097471084679 2.8336674231085435 0 0 0
354 2 -11.206536927440045 1.513510409399279 7.780347297652607 0 0 0
363 1 -9.776282852473539 2.9037494826087067 6.1379154577698305 0 0 0
1009 2 -1.2806037631664806 5.87758729182735 9.030126623878171 0 0 0
356 1 -8.418210130290305 1.4470921993148609 7.57953157189155 0 0 0
365 1 -6.98705230811974 2.8579776534108823 6.087616289499035 0 0 0
358 2 -5.575682288427066 1.4061010049199811 7.5593690052169045 0 0 0
367 1 -4.091565610221527 2.836484707009219 6.154728767210864 0 0 0
360 1 -2.644683783384216 1.3495522360478815 7.740248906228098 0 0 0
873 2 -1.297037954611614 2.729016246342716 6.1557117676248625 0 0 0
483 1 -9.679630684485343 5.5505664882821755 6.208621258639502 0 0 0
362 1 -11.202045643114857 4.319967395794908 7.6763731753989735 0 0 0
364 1 -8.300151085886386 4.212504640378445 7.828574210335762 0 0 0
485 2 -6.963749368652633 5.428100290349295 6.283527253550113 0 0 0
366 1 -5.5399500929821865 4.236456392042453 7.809900727822552 0 0 0
487 2 -4.12858337095644 5.539635272882279 6.125604244105165 0 0 0
368 1 -2.624905512358733 4.299806165211864 7.684717456834075 0 0 0
993 2 -1.2870927596024924 5.757855353303905 6.172541321129114 0 0 0
371 1 -9.868551992089053 0.08808131312250941 9.22499995091677 0 0 0
370 1 -11.342020200265386 1.574183504242731 10.721632697778558 0 0 0
379 1 -9.783406334168587 2.827514702939492 9.222785965456058 0 0 0
373 1 -7.081419554511141 0.03971525513954978 9.215705316251418 0 0 0
372 2 -8.50797515785214 1.390079091509584 10.884012730275456 0 0 0
381 2 -7.027409159432922 2.725541194296351 9.313130792809982 0 0 0
383 2 -4.061435411157436 2.8078159203399258 9.266184175915152 0 0 0
374 1 -5.505024497528354 1.3906141031448638 10.695269088341098 0 0 0
889 2 -1.105594298843405 2.7733594431052357 9.091534049508782 0 0 0
376 1 -2.4741295295102934 1.3830636606621893 10.572017193184182 0 0 0
499 1 -9.749695534980175 5.827311842118426 9.07151794177243 0 0 0
378 2 -11.200153839980606 4.392592697299967 10.475942104748459 0 0 0
501 2 -7.012750615158108 5.906070221843956 9.202609778273306 0 0 0
380 1 -8.378705372620928 4.35088486925476 10.632536407311559 0 0 0
391 1 -4.003519559590418 5.879980802133626 11.986881786495818 0 0 0
503 2 -4.155308324351674 5.755480603839227 9.163317145042903 0 0 0
382 1 -5.51291362801171 4.319246858642192 10.593484274988956 0 0 0
384 1 -2.5340077813041604 4.339301802324185 10.516366607956114 0 0 0
386 1 -11.02711317081261 7.396446033523212 -10.40518340879962 0 0 0
388 2 -8.258829316927727 7.284021254331665 -10.586613062765558 0 0 0
390 1 -5.514616138305573 7.421465354268068 -10.54422058889741 0 0 0
415 1 -4.149406327771783 8.950058831991916 -9.046690125107139 0 0 0
392 1 -2.6926854149222494 7.521067441958561 -10.614459080131114 0 0 0
913 2 -1.353690983822238 6.1231063318848475 -9.161170214985967 0 0 0
394 1 -10.89240154397471 10.205401940284158 -10.319777882748268 0 0 0
3 1 -9.615705352255665 11.688941777568793 -11.828614885702052 0 0 0
396 1 -8.263310713584676 10.188587743274358 -10.370591476861083 0 0 0
5 2 -7.035556646194871 11.809804501433064 -11.871373770470324 0 0 0
398 1 -5.6345533666759415 10.329996786450936 -10.470766263032289 0 0 0
416 1 -2.7245982899093013 10.55186835370159 -7.627008344452813 0 0 0
921 2 -1.4653025457253877 9.069002453727949 -9.234914658927122 0 0 0
400 1 -2.8153745134077957 10.496672441316125 -10.622886727693794 0 0 0
402 1 -10.930943294868989 7.348471358675947 -7.255827487415142 0 0 0
411 2 -9.586552121937071 8.723618984319552 -8.767811110834325 0 0 0
427 1 -9.439950793315013 8.984187129971167 -6.006834749991042 0 0 0
404 2 -8.121975582933416 7.194016575332686 -7.22089321586421 0 0 0
413 1 -6.9590833535666485 8.715530356156792 -8.86411243206492 0 0 0
406 1 -5.452984039025172 7.442044958229392 -7.5193559687017135 0 0 0
423 2 -4.034379252489709 6.159935042010991 -6.129435252733511 0 0 0
408 1 -2.561870650621304 7.5828803305590196 -7.556469131506027 0 0 0
410 1 -10.748487169544937 10.486843072211007 -7.536991628201994 0 0 0
429 1 -6.790504557341261 9.04612102771264 -6.077903560762842 0 0 0
412 1 -8.127961602024437 10.584891267646007 -7.6031449272952685 0 0 0
431 1 -4.093543623905763 9.052860424605301 -6.151213830004837 0 0 0
414 1 -5.544579795194588 10.516301604494597 -7.648583789859916 0 0 0
407 1 -4.018193514326079 6.002903406560549 -9.029120154349828 0 0 0
418 1 -10.797405469698054 7.405948360783203 -4.350655417465729 0 0 0