LAMMPS data file via write_data, version 2 Aug 2023, timestep = 10000, units = metal

1024 atoms
2 atom types

-12.098801781682086 12.098801781682086 xlo xhi
-12.098801781682086 12.098801781682086 ylo yhi
-12.098801781682086 12.098801781682086 zlo zhi

Masses

1 55.847
2 26.982

Atoms # atomic

2 1 -10.338455294290751 -10.299691942724865 -10.72207714754258 0 0 0
17 1 -11.7488844386567 -11.855606690823823 -9.328883976010454 0 0 0
657 2 -0.7846936333937975 -6.157000301430926 -8.886545337707883 0 0 0
4 1 -7.660780399782152 -10.306753908521205 -10.67096258865332 0 0 0
21 1 -6.418698163139196 -11.846231601046012 -9.16489479293153 0 0 0
19 1 -9.086317619914078 -11.797511039701437 -9.255651818305797 0 0 0
6 1 -4.981806253985203 -10.414668761161142 -10.584178549095652 0 0 0
8 1 -2.1764100717446055 -10.599042758168464 -10.44054183726305 0 0 0
521 2 -0.8130292014011511 -9.21670691726152 -11.851790362234327 0 0 0
10 1 -10.371839876000756 -7.469277239946289 -10.588648242244261 0 0 0
25 1 -11.814436334841986 -8.914611922406412 -9.140479282294708 0 0 0
133 2 -6.179382239699471 -6.1412955817858315 -11.847955549268372 0 0 0
12 1 -7.650773030874021 -7.517257406597917 -10.460758051560951 0 0 0
13 1 -6.236481520502904 -8.838093740781181 -12.076987577696656 0 0 0
14 1 -4.85232003587742 -7.59921447510713 -10.396414932178208 0 0 0
135 1 -3.429894155643615 -6.177668570537181 -11.855761176658234 0 0 0
15 1 -3.5216284453143385 -9.03206890066421 -12.007722450303964 0 0 0
16 1 -2.0980923216135987 -7.680203008642591 -10.36891776508938 0 0 0
641 2 -0.7402221214291116 -6.298169233965789 -11.762033451963147 0 0 0
18 1 -10.454796966214722 -10.497279238451279 -7.542669446203033 0 0 0
20 1 -7.794905384855174 -10.579391719915064 -7.505200441305566 0 0 0
23 1 -3.7195204696003255 -11.962589072450163 -9.049045786021438 0 0 0
31 1 -3.6236559179324783 -9.110588298659714 -8.930937632964252 0 0 0
22 1 -5.086662196946434 -10.536732406258414 -7.490444326796816 0 0 0
537 2 -0.8921216016901253 -9.200459132564399 -8.899086696629066 0 0 0
24 1 -2.2918708234321286 -10.59579533145202 -7.464771229320045 0 0 0
41 1 -11.808652348143239 -8.718173464435491 -6.232853375026713 0 0 0
26 1 -10.431404978123231 -7.298184953160541 -7.748109354083291 0 0 0
29 1 -6.362625525659799 -9.042634947813127 -8.96791524093398 0 0 0
27 1 -9.064548997495521 -9.006830826872184 -9.01148089879496 0 0 0
28 2 -7.68516455483763 -7.2442355681794375 -7.780151747273836 0 0 0
43 1 -9.056956750659195 -8.729354423196687 -6.296158413859034 0 0 0
45 1 -6.4517798514254 -8.790938544147703 -6.237440284242856 0 0 0
47 1 -3.695745408875191 -8.946070170218503 -6.11675269500414 0 0 0
30 1 -4.9473496007248015 -7.404854229327836 -7.619519303118957 0 0 0
32 1 -2.1609476392958626 -7.57867901629976 -7.498724928453732 0 0 0
34 1 -10.37897514019546 -10.19992772004647 -4.823352836675899 0 0 0
49 1 -11.65895495000052 -11.68575703193403 -3.1389307527932138 0 0 0
36 1 -7.7900929795542435 -10.230856324488794 -4.794364154477107 0 0 0
51 1 -9.100875877117327 -11.680459529794103 -3.289358331768747 0 0 0
53 1 -6.498688518791263 -11.734490705308067 -3.3035358984911034 0 0 0
55 1 -3.88229126504104 -11.887417941701557 -3.2218862368028534 0 0 0
38 1 -5.13964070878723 -10.339093156456473 -4.7859269376623335 0 0 0
40 1 -2.3715953813343935 -10.515108344430697 -4.584267982615697 0 0 0
553 2 -0.9765514452603267 -9.126304400650465 -5.980484715992414 0 0 0
569 2 -1.067649620102306 -9.102120897743138 -3.072108208822631 0 0 0
561 2 -1.1529293227224866 -12.034841894636184 -3.064228590874556 0 0 0
42 1 -10.368596047579466 -7.430827762632911 -4.5357822931010805 0 0 0
44 1 -7.737923490396034 -7.479647167030306 -4.485188112012396 0 0 0
61 1 -6.396946947713543 -9.01612604048975 -3.0220263765333994 0 0 0
63 1 -3.8140398501542174 -9.030889139478527 -3.080499598574757 0 0 0
46 1 -5.036057966265103 -7.492432024524948 -4.583600653126612 0 0 0
48 1 -2.2543906756510435 -7.560961029668087 -4.554105548240768 0 0 0
673 2 -0.8423219981595361 -6.1216881250357655 -5.980183419913095 0 0 0
689 2 -0.8981694990659674 -6.0999709883846265 -3.0760142204140832 0 0 0
50 1 -10.315017838291535 -10.481507666814599 -1.2971663073051858 0 0 0
52 1 -7.752428198535014 -10.56586549223699 -1.4094200714440144 0 0 0
54 2 -5.145122677225845 -10.609108868643998 -1.4584524320777703 0 0 0
56 1 -2.4603309426696023 -10.5472371862758 -1.5951837607810573 0 0 0
585 2 -1.095563509717809 -9.095312092964855 -0.16472647267229446 0 0 0
577 2 -1.1997182659480894 -12.020170255936957 -0.14735013671537672 0 0 0
57 1 -11.71844635030982 -8.954128340509033 -2.9457264815971653 0 0 0
58 1 -10.277961922008831 -7.299304891123831 -1.6257433183779197 0 0 0
59 1 -9.056013486790425 -9.022999041429836 -2.9604332506498316 0 0 0
60 1 -7.690061069374949 -7.263201122430346 -1.7406059775929308 0 0 0
77 1 -6.3791839547295295 -8.737856357155412 -0.2777104810548113 0 0 0
75 1 -8.963806093717212 -8.719271728218754 -0.1427937146736339 0 0 0
79 1 -3.7889337108002 -8.862945407655092 -0.23360904461243973 0 0 0
62 1 -5.033013211575833 -7.281951640890753 -1.7443035457173786 0 0 0
64 1 -2.291714541655353 -7.518230400459713 -1.6574353108568838 0 0 0
705 2 -0.968621571954133 -6.124725468551131 -0.15274128473018603 0 0 0
35 1 -9.128047518188623 -12.090185679652663 -5.983086224733083 0 1 0
37 1 -6.509576422313017 -12.063822586997832 -6.002319941793852 0 1 0
39 1 -3.823545446890676 -12.05357750973212 -6.016265143234473 0 1 0
71 1 -3.883019796301446 -12.084887876694113 -0.017854319692483106 0 1 0
545 2 -1.0863045415203096 -12.088742665109407 -5.980071340542995 0 1 0
66 1 -10.254046753171256 -10.245644876965086 1.4515512010379248 0 0 0
65 1 -11.5923078460112 -12.051717684937133 0.2449882588978258 0 0 0
83 2 -8.951653606253194 -11.725339580644816 2.8742091298954353 0 0 0
68 1 -7.661743814646808 -10.217291980022688 1.301515584694201 0 0 0
85 1 -6.397984562137936 -11.740879321562797 2.789589249354306 0 0 0
70 1 -5.117762623739506 -10.279399806253986 1.249442562902644 0 0 0
87 1 -3.8686227565465265 -11.851844987701105 2.7434717419573915 0 0 0
72 1 -2.4136412500543125 -10.473485846584671 1.3190592011152156 0 0 0
601 2 -1.0728223748291303 -9.11318498876543 2.8287199669656067 0 0 0
593 2 -1.1618069585460271 -12.011005979043674 2.769802301975603 0 0 0
74 1 -10.121884293601392 -7.48387661177386 1.757433735255954 0 0 0
73 1 -11.668341281297195 -8.736892476005494 0.1378697185134593 0 0 0
76 1 -7.55538494151114 -7.561235767487201 1.657926551270546 0 0 0
737 2 -0.9201175659458148 -6.232608645320117 5.9108209373633285 0 0 0
78 1 -5.002056264852214 -7.55930338961977 1.5189035734153438 0 0 0
80 1 -2.3048240085022917 -7.573648306575716 1.376404895352808 0 0 0
81 1 -11.582374683884762 -11.782346788934202 3.099359918725788 0 0 0
82 1 -10.172558220450224 -10.504144637731974 4.7496378787948865 0 0 0
91 1 -8.850647740987634 -9.051256498646833 3.239181514262901 0 0 0
93 1 -6.274090581169752 -9.096867223537666 3.1756619683071823 0 0 0
84 1 -7.567152354962981 -10.611643595654924 4.767452682525609 0 0 0
95 1 -3.7438479605807324 -9.073801266779594 2.9926782139172494 0 0 0
86 1 -4.990891761288443 -10.633060821433276 4.666045416531545 0 0 0
88 1 -2.356859215326351 -10.581519432621945 4.330402906259783 0 0 0
617 2 -1.0821040421410884 -9.139910638921044 5.775452765455095 0 0 0
89 1 -11.559111307450507 -8.896426330819619 3.2055816742995686 0 0 0
90 1 -10.126701836488563 -7.367635523036596 4.602444576450767 0 0 0
109 1 -6.183102056068225 -8.884980065302964 6.015737854622891 0 0 0
107 1 -8.817234279929115 -8.838157100940872 6.021824479188224 0 0 0
92 1 -7.466339056175255 -7.358165946242235 4.487800308361982 0 0 0
111 1 -3.5790402619452326 -9.002662600908504 5.9655206200237 0 0 0
94 1 -4.884502547166623 -7.3937787666957995 4.452697753270509 0 0 0
96 1 -2.253231682578503 -7.529938801580402 4.35452368117224 0 0 0
721 2 -1.001058585386467 -6.098316323581112 2.7980128649656275 0 0 0
609 2 -1.1983157511447537 -12.045755111847544 5.75106621488864 0 1 0
98 1 -10.17615228545754 -10.316984475323107 7.479308109355207 0 0 0
97 1 -11.588244891449223 -11.935430645556899 6.17590202810722 0 0 0
113 1 -11.603996832843736 -11.85206186023566 9.032316602236019 0 0 0
100 1 -7.529763241457558 -10.311664395096658 7.530105767820797 0 0 0
115 1 -8.895061528552805 -11.78784279141171 8.977033924281756 0 0 0
117 1 -6.262121213759797 -11.851691923687207 8.983532272871509 0 0 0
102 1 -4.872199267607886 -10.405071309854513 7.551370603263807 0 0 0
104 1 -2.1488943880781233 -10.5595614674284 7.618231120534519 0 0 0
106 1 -10.156729600896483 -7.587897030513748 7.736460551216831 0 0 0
105 1 -11.574568066514802 -8.843581403578952 6.0744933724243895 0 0 0
108 1 -7.522663112574283 -7.665099043110852 7.863049946022943 0 0 0
227 1 -8.769943764966628 -6.132573898934989 6.327382248831538 0 0 0
229 2 -6.171137443718624 -6.276435299227008 6.450063349992703 0 0 0
110 1 -4.749529305177162 -7.7148431606711885 7.830211401629991 0 0 0
231 1 -3.4346914668484407 -6.241694306576468 6.284937450430139 0 0 0
112 1 -2.0307797312704734 -7.727178386040288 7.710857866287411 0 0 0
114 2 -10.149180352360554 -10.643617421960103 10.796493175266814 0 0 0
116 1 -7.540960141386275 -10.610617363312313 10.820698139011746 0 0 0
123 1 -8.928474898388341 -9.094184364209966 9.317286694667388 0 0 0
125 1 -6.187203482875331 -9.122053151297836 9.32395463720534 0 0 0
119 1 -3.6073615453136205 -11.937684042099669 9.164190420154227 0 0 0
127 1 -3.467466786525827 -9.167618238917097 9.320846319032563 0 0 0
118 1 -4.946652344897569 -10.604886217345495 10.825892419006175 0 0 0
633 2 -0.7128028222310006 -9.187712818584302 9.282118663318418 0 0 0
120 1 -2.111216845261907 -10.63741638892702 10.795931235029167 0 0 0
9 1 -11.72379596633222 -8.903132078089818 11.97117695922132 0 0 0
121 1 -11.588119082195709 -8.983415845957948 9.168574089353944 0 0 0
122 1 -10.241376917479815 -7.31466530414307 10.566418891246759 0 0 0
124 1 -7.510037868955307 -7.381546792880986 10.581210013721073 0 0 0
11 1 -8.95690931867598 -8.817187034312656 12.025560933432228 0 0 0
126 1 -4.780430377091423 -7.470561793404147 10.63260212911301 0 0 0
128 1 -1.9942055142157962 -7.616670763865516 10.749269876437971 0 0 0
753 2 -0.637530523200103 -6.210746355286354 9.195132283580408 0 0 0
99 1 -8.860944789904162 -12.098128356969605 6.31831903295755 0 1 0
625 2 -0.7839751601305328 -12.076071061515263 9.274510616028588 0 1 0
1 1 -11.755148077658133 -11.943739998015593 12.082868283367826 0 0 -1
130 1 -10.369007473808242 -4.43467616035236 -10.65606926994498 0 0 0
145 1 -11.870879927005314 -5.917192407855374 -9.20504981762778 0 0 0
131 1 -8.922900238620597 -6.009165975454642 -11.986536436854099 0 0 0
132 1 -7.557831851503596 -4.424298730128912 -10.598033918347593 0 0 0
149 1 -6.207678112968307 -5.879269444953847 -9.125598014251631 0 0 0
147 1 -9.059826200946961 -5.837066039909987 -9.191145466583736 0 0 0
134 1 -4.756296377538528 -4.461526257829954 -10.552444857797521 0 0 0
136 1 -1.9368922170182734 -4.574403183930864 -10.46056496138385 0 0 0
138 1 -10.334803673002206 -1.5600234393438175 -10.585930870597537 0 0 0
153 1 -11.860299238069302 -3.001077653056014 -9.178845047740003 0 0 0
273 1 -11.81231230861703 -0.028641574273744728 -9.188920005600487 0 0 0
140 1 -7.55466914771893 -1.5899365474398501 -10.48428531621476 0 0 0
259 1 -8.886643705161141 -0.13484090398365284 -11.98454985965809 0 0 0
261 1 -6.118073191449715 -0.16732060103085192 -11.868518562804896 0 0 0
155 1 -9.026248356889038 -3.027774343944112 -9.07528465540712 0 0 0
141 1 -6.095055111646309 -2.9564677717732715 -12.02333126220716 0 0 0
275 1 -8.989975584021007 -0.04268581681244021 -9.117836196183386 0 0 0
139 1 -8.887187994374248 -2.9931544046100558 -12.068994571647478 0 0 0
142 1 -4.761501138422133 -1.6337297212422215 -10.409114056900622 0 0 0
263 1 -3.415722971185416 -0.15366295243299655 -11.816297444613346 0 0 0
143 1 -3.3235384308036333 -3.0237356230460044 -11.997009858627347 0 0 0
144 1 -1.949338161878201 -1.6066140486619662 -10.369327217963447 0 0 0
649 2 -0.5635024782334326 -3.010374920628954 -11.865778479040008 0 0 0
161 1 -11.876674699995867 -5.930487755605165 -6.156113429099476 0 0 0
146 1 -10.459814391484183 -4.465601442676896 -7.617108734954053 0 0 0
148 1 -7.666565649348083 -4.492220904878301 -7.5851311011352145 0 0 0
165 1 -6.342557840481423 -5.985620591006845 -6.053836776168475 0 0 0
163 1 -9.061517016321659 -5.966240869148311 -6.084264613662326 0 0 0
157 1 -6.218990997271733 -3.0825584792429406 -9.027320953838515 0 0 0
151 1 -3.477614218331047 -5.987254994999311 -9.014646683961878 0 0 0
150 1 -4.857791484138036 -4.520483375961472 -7.517818386643273 0 0 0
279 1 -3.5135824542596734 -0.015662022499636195 -8.9667735666323 0 0 0
159 1 -3.3970799438717765 -3.0991418587563655 -8.96093889007877 0 0 0
152 1 -2.02396497647602 -4.559066578981337 -7.474355797991606 0 0 0
665 2 -0.5972985637344852 -3.10433991231531 -8.95183047327341 0 0 0
169 1 -11.886454167565216 -2.939998835626091 -6.176722191126487 0 0 0
289 1 -11.836630642972594 -0.04104127452325415 -6.159172358780583 0 0 0
154 1 -10.435378122747206 -1.5049470064023154 -7.670692079692864 0 0 0
173 1 -6.2878484535601125 -2.9898609557064972 -6.151437613153368 0 0 0
171 1 -9.061219935543862 -2.9501491010198886 -6.191987833427003 0 0 0
156 1 -7.636345828799339 -1.5202183525533206 -7.647977481956796 0 0 0
291 1 -9.033504427247495 -0.11984473817563951 -6.104019734720203 0 0 0
293 1 -6.302307362499892 -0.13967493539194675 -6.0689524139530295 0 0 0
158 1 -4.8867090907371304 -1.5851526593755694 -7.6064271869194435 0 0 0
277 1 -6.214580443993528 -0.018029390502210158 -9.057307443483017 0 0 0
175 1 -3.4874272863476494 -3.0056143449627695 -6.062284433276787 0 0 0
160 1 -2.028750167456364 -1.5453463421604532 -7.48576171023641 0 0 0
162 1 -10.405357182066531 -4.392469497726422 -4.701779537850777 0 0 0
164 1 -7.6867439994146975 -4.388565263020988 -4.710557763611718 0 0 0
179 1 -9.034181319881814 -5.789373728130339 -3.1958649477610077 0 0 0
181 1 -6.346574486068509 -5.835201284183669 -3.230776354388844 0 0 0
187 1 -8.993410092767151 -3.0378894974057333 -3.0657201663143896 0 0 0
189 1 -6.311082867692076 -3.0731062166544936 -3.0657210213437307 0 0 0
166 1 -4.915943340804901 -4.43753120207592 -4.65663140951683 0 0 0
183 1 -3.6151293743936446 -5.940170996433172 -3.1735699795935095 0 0 0
168 1 -2.0997203281885874 -4.532919625364371 -4.56986180590963 0 0 0
697 2 -0.773001266010939 -3.1215402308742832 -3.0407784709592396 0 0 0
170 1 -10.373602515410251 -1.5366350799639392 -4.597473594736698 0 0 0
172 1 -7.663974670176559 -1.5890511103481295 -4.584703533039498 0 0 0
174 1 -4.961931012962113 -1.614270673367657 -4.548671792120604 0 0 0
191 1 -3.5548166666468224 -3.043649951220512 -3.0759863345926597 0 0 0
176 1 -2.1278013534185027 -1.504382741354772 -4.530345243923279 0 0 0
681 2 -0.6888802591892362 -3.086576177580819 -5.980185567108435 0 0 0
177 1 -11.715639790865128 -5.85390625742752 -3.003664131751148 0 0 0
178 1 -10.223033544059179 -4.482725956438998 -1.4169180553336131 0 0 0
180 1 -7.62057999865774 -4.523548634523325 -1.500956577961583 0 0 0
182 1 -4.949084642578723 -4.538861507753217 -1.5845174531104973 0 0 0
184 1 -2.1731312298969825 -4.557923592570886 -1.592985777539683 0 0 0
185 1 -11.661747275465578 -2.9756236144816985 -2.95560228636295 0 0 0
186 1 -10.168360052277455 -1.5080996587715667 -1.5064143147055244 0 0 0
305 1 -11.585026534656897 -0.03495274055313864 -2.919513611674931 0 0 0
188 1 -7.599507844216794 -1.4313740459060333 -1.701368682210568 0 0 0
203 1 -8.84520367336865 -2.933059968019098 -0.025211987217093088 0 0 0
205 1 -6.2371404148016785 -2.880280644965392 -0.20446791996228028 0 0 0
207 1 -3.6006280551202567 -2.9245066612552213 -0.26499256085774886 0 0 0
190 1 -4.960858198550314 -1.4075292348171522 -1.7523333810618182 0 0 0
199 1 -3.657908747736194 -6.043762078893809 -0.07719054647078769 0 0 0
192 1 -2.207225678700196 -1.4367108463484786 -1.6385994569408198 0 0 0
713 2 -0.840308661743323 -3.071636415272518 -0.12602849123865206 0 0 0
167 1 -3.573550216533102 -6.030390784977509 -6.043499870558882 0 0 0
295 2 -3.654463071988998 -0.13897200307587043 -6.04571905431141 0 0 0
194 1 -10.09174313671022 -4.392091479874974 1.668190960218149 0 0 0
193 2 -11.42160652010642 -5.988716576500984 0.249400747742192 0 0 0
201 1 -11.546451131309786 -3.007176021702417 0.21051598375241948 0 0 0
196 1 -7.479204304881286 -4.349688616478975 1.4356306621447075 0 0 0
213 1 -6.183193410036072 -5.853063869273796 2.8845289223639927 0 0 0
195 1 -8.860462469089924 -6.004707167697795 0.14143362246568614 0 0 0
198 1 -4.893718788927475 -4.364548371725276 1.2782991415736902 0 0 0
215 1 -3.6251241447119367 -5.931755814353665 2.8302935654966035 0 0 0
200 1 -2.197572214764791 -4.494050099676711 1.338577142556105 0 0 0
745 2 -0.9258616771521655 -2.9459191202430173 5.868430514486418 0 0 0
729 2 -0.7989119493712115 -3.1424770841398675 2.8764285585039855 0 0 0
202 1 -10.05299601622631 -1.6983020994678117 1.835911710009563 0 0 0
321 1 -11.458499379210721 -0.20661977536760445 0.30368082110753325 0 0 0
204 1 -7.410880792052384 -1.7770644542401692 1.7829389151005504 0 0 0
325 1 -6.243473364817129 -0.25015877614412374 0.16831477393720629 0 0 0
323 1 -8.77642325692156 -0.31368482254932845 0.2766376101456932 0 0 0
206 1 -4.84924787337462 -1.7132467483469396 1.6494620483113798 0 0 0
208 1 -2.2701664834367996 -1.617761521287689 1.4611108415611953 0 0 0
209 1 -11.505797658475482 -5.916608895903361 3.2163310222993693 0 0 0
210 1 -10.05749450591969 -4.560045040668779 4.786327431991006 0 0 0
217 1 -11.505912903769621 -3.0487863803949122 3.318689089741001 0 0 0
211 1 -8.754258671260882 -5.852726490423666 3.071585818402149 0 0 0
219 1 -8.686545192956949 -3.1616855617683526 3.354429510709494 0 0 0
212 1 -7.336372884409616 -4.7034813161296505 4.883455724210251 0 0 0
221 1 -6.057340010999522 -3.2437830287704963 3.3214138594424876 0 0 0
223 2 -3.586023914760706 -3.1999627484058673 3.136598440427809 0 0 0
214 2 -4.779591970466437 -4.772676874195539 4.851691470868885 0 0 0
216 1 -2.086516641606225 -4.626257972835943 4.530129363348081 0 0 0
218 1 -10.019477876243943 -1.5356690534389725 4.706151048297181 0 0 0
337 1 -11.39498557217125 -0.04852625801919114 3.2700027429887366 0 0 0
220 1 -7.332595860649672 -1.4164836505540104 4.533233770325955 0 0 0
222 1 -4.796132561184841 -1.2937681082312111 4.410460393354105 0 0 0
239 1 -3.4544246227656 -2.908260769598049 5.983148503425518 0 0 0
224 1 -2.247688494378815 -1.3864691784156762 4.280126926278017 0 0 0
197 1 -6.289841722885284 -6.031418781143354 0.01878786796988038 0 0 0
327 1 -3.7113601098360367 -0.12970852905560354 0.022770652721786633 0 0 0
226 2 -10.020843862231237 -4.3899505608200835 7.563653342209111 0 0 0
225 1 -11.497425008389408 -5.96998743874392 6.2223025776388265 0 0 0
233 1 -11.547004472458527 -3.0524843547962024 6.192966202920645 0 0 0
241 1 -11.589743255085414 -5.917940293634001 9.040095031472154 0 0 0
228 1 -7.3542517904262805 -4.401943741648534 7.645588794479726 0 0 0
230 1 -4.679085622191216 -4.46006818559093 7.626341762605455 0 0 0
232 1 -1.9599102454573023 -4.5726185574539615 7.560121818485487 0 0 0
234 1 -10.100018377420573 -1.6406983044930534 7.7524433921777565 0 0 0
353 1 -11.506661211517834 -0.09349736834068864 6.21605467112306 0 0 0
236 1 -7.324587110492063 -1.7279114279431071 7.943726702069692 0 0 0
355 1 -8.62879756570237 -0.2824145327349744 6.436829969102661 0 0 0
235 1 -8.63557573686645 -2.941612931863845 6.122765412667882 0 0 0
357 1 -6.016701166984481 -0.28739283757997686 6.468270926308319 0 0 0
238 1 -4.652714329007657 -1.809893951408765 7.973683986966194 0 0 0
359 1 -3.504408182619325 -0.2792580694025555 6.417445999671832 0 0 0
237 1 -6.003535880344002 -2.857903093534923 6.081043457144638 0 0 0
240 1 -2.038170522448027 -1.7745413571621171 7.900734334381403 0 0 0
865 2 -1.0455746201203577 -0.08514768453874366 6.230619197573266 0 0 0
242 1 -10.227140166593118 -4.5286346136698326 10.716254234437262 0 0 0
249 1 -11.590553100917909 -3.084155384620423 9.120983238255578 0 0 0
129 1 -11.745543489541815 -5.96563661513262 12.064353225008354 0 0 0
243 1 -8.835401000416677 -5.893505604151404 9.11089098820128 0 0 0
244 1 -7.438219247707808 -4.611545400362511 10.786972435687519 0 0 0
251 1 -8.78988260690886 -3.1140115941703788 9.317500503217136 0 0 0
245 1 -6.079683752530042 -5.971734071244365 9.090348831071308 0 0 0
247 1 -3.3510863930368457 -6.042505603241923 9.157213850775966 0 0 0
253 1 -6.021259185651056 -3.199542722164712 9.416164377172077 0 0 0
246 1 -4.735274486386271 -4.701227765539727 10.863022962201532 0 0 0
255 1 -3.3143903313480076 -3.292076098641623 9.445507419994339 0 0 0
248 1 -1.9011824869028824 -4.760859409430404 10.905211003711658 0 0 0
761 2 -0.6662607144903057 -3.28245632591882 9.410243673684986 0 0 0
250 1 -10.197475862653501 -1.5463759905026313 10.630038473234084 0 0 0
369 1 -11.544784074616276 -0.09154230241695896 9.131661747641834 0 0 0
137 1 -11.72623756730172 -3.003685469103147 12.05628252468273 0 0 0
257 1 -11.685200091867628 -0.07869477535537835 12.079256580657239 0 0 0
252 1 -7.422943491647485 -1.5138152033234349 10.690708231985106 0 0 0
371 1 -8.748822526661314 -0.05942808023185274 9.180315162285677 0 0 0
254 1 -4.670231713226911 -1.4964771656103886 10.694834134827317 0 0 0
256 1 -1.9466308325061832 -1.4440742747164375 10.689157172931582 0 0 0
258 1 -10.282335865253161 1.4412989326542636 -10.633849160969541 0 0 0
281 1 -11.725247903434123 2.8998867555156593 -9.163560220326 0 0 0
260 1 -7.562439786572011 1.4633169291207668 -10.566666228398237 0 0 0
262 1 -4.884850935550525 1.565862666358601 -10.503412965919722 0 0 0
769 2 -0.862370977940215 0.039013028743535016 -11.788466912142624 0 0 0
264 2 -2.384926135215977 1.7454958995893606 -10.4666510193694 0 0 0
266 1 -10.26987036896334 4.350121705564091 -10.550991468536004 0 0 0
385 1 -11.643064662330108 5.892610269668193 -12.077659061366976 0 0 0
389 1 -6.320874348510212 5.930393398129502 -11.814064202300612 0 0 0
387 1 -8.912787861440215 5.87198549086666 -11.93088991515766 0 0 0
268 1 -7.635452060110567 4.354611050031167 -10.421122214257512 0 0 0
269 1 -6.221087571971377 3.059908620540328 -12.057549786022996 0 0 0
270 1 -5.019718593917941 4.47783061668361 -10.38794942728454 0 0 0
271 1 -3.6453942109115767 3.2322979059691725 -12.064763344142374 0 0 0
272 1 -2.2738312042007163 4.709474830714601 -10.432265437849312 0 0 0
777 2 -0.9651358719632294 3.3377304260966167 -11.976828582657152 0 0 0
274 1 -10.385969237890945 1.3779986528273838 -7.60194297182037 0 0 0
297 1 -11.71674478535871 2.999666556250625 -6.244937344828937 0 0 0
288 1 -2.36238383736488 4.763597018480342 -7.4791531267308 0 0 0
276 1 -7.65417639053663 1.3565524214246862 -7.529784848852913 0 0 0
285 1 -6.326558837783755 2.90193260139911 -8.935457623284233 0 0 0
283 1 -8.997285400409055 2.843987480585148 -9.016903712549526 0 0 0
793 2 -1.0223821624869212 3.337227378633548 -8.890526202582144 0 0 0
278 1 -4.942737725877953 1.4714623669770739 -7.463057932415882 0 0 0
785 2 -0.9771759189050266 0.1424247275326357 -8.947835493917513 0 0 0
280 1 -2.2655985213318948 1.6955890502538349 -7.462485735988178 0 0 0
282 1 -10.375551021893648 4.5613332258792765 -7.755377803287584 0 0 0
299 1 -9.04872413424011 3.061878228070725 -6.260812889691974 0 0 0
284 1 -7.759153996174373 4.646167793995242 -7.725369007237539 0 0 0
301 1 -6.430847902644499 3.1515133805774065 -6.221374593610146 0 0 0
303 1 -3.8007813019368704 3.2960067559667867 -6.098006302187017 0 0 0
287 1 -3.703318464265412 3.150619627469489 -8.8727194851346 0 0 0
286 1 -5.132974051261823 4.746283306542106 -7.626567398901454 0 0 0
401 1 -11.695040844136516 6.047397160301717 -9.270821046737252 0 0 0
267 1 -8.866488833552756 2.9606199789448846 -12.095373101661716 0 0 1
290 1 -10.312878379564022 1.5027804239627158 -4.715409387243067 0 0 0
292 1 -7.697991531243412 1.5571174593668873 -4.762496294602572 0 0 0
307 1 -8.974354374918857 0.029677600939782132 -3.1968137775298184 0 0 0
309 1 -6.342867677284564 0.0850554614098599 -3.2571456810331325 0 0 0
294 1 -5.064547432186953 1.627372426216627 -4.769338260339671 0 0 0
311 1 -3.713788517114211 0.1147550450181537 -3.2177513111948834 0 0 0
296 1 -2.3969932000301175 1.7202497885505528 -4.649000292886341 0 0 0
801 2 -1.0015055320320665 0.22768811302646358 -6.024329316851952 0 0 0
817 2 -1.210718936350965 0.3084563342748756 -3.08397322026442 0 0 0
298 1 -10.248665699493166 4.20623439626611 -4.343045993691846 0 0 0
417 1 -11.683236399622066 5.826369287115762 -5.937389588751383 0 0 0
419 1 -9.132434943955671 5.813831614811275 -5.880554129823079 0 0 0
300 1 -7.750915197990996 4.306603516570313 -4.397664737332815 0 0 0
421 1 -6.517148267699866 5.960652041194676 -5.912709539804595 0 0 0
302 1 -5.195236220749113 4.490226733705152 -4.446021513572452 0 0 0
319 1 -3.883629332269199 3.0093430803031884 -3.0569680630671945 0 0 0
809 2 -1.103967060569787 3.321894358963591 -5.9406412091472465 0 0 0
304 1 -2.4157039169053793 4.684102780699697 -4.473499850359813 0 0 0
306 1 -10.088943530497069 1.196810447329203 -1.2038387087420792 0 0 0
313 1 -11.501910523610409 2.7379071999756635 -2.7118510788433245 0 0 0
317 1 -6.420791635386342 2.794344805453667 -2.9304537981542667 0 0 0
308 1 -7.58866244569078 1.2179254533149142 -1.3274524582127918 0 0 0
315 1 -8.94743941265502 2.696928123541535 -2.8317455307437958 0 0 0
310 1 -5.061247871397545 1.3361938686618184 -1.4452490596591008 0 0 0
312 1 -2.4944428332205155 1.704878052890787 -1.5741508729766225 0 0 0
833 2 -1.2257633303684319 0.3737166718098903 -0.10973171029388339 0 0 0
314 1 -10.163849007137525 4.648104018762011 -1.640017805917172 0 0 0
333 1 -6.415882520547642 3.2268604923791386 -0.27635083389123627 0 0 0
331 1 -8.899438540246555 3.135925115182539 -0.14613456148565065 0 0 0
316 1 -7.718909182769924 4.7344343294567235 -1.786460444664625 0 0 0
335 1 -3.9318065605009487 3.317384220287216 -0.3104168850848605 0 0 0
318 1 -5.228741874183048 4.794693420162946 -1.8245694787750453 0 0 0
825 2 -1.17444615604606 3.259450737386807 -2.9904510754143105 0 0 0
320 1 -2.558203790541074 4.733770258884529 -1.703564260803533 0 0 0
961 2 -1.2642263943349643 6.0266990799858595 -0.14965195363842979 0 0 0
841 1 -0.9661513201137404 3.309002838635898 -0.14200390454613437 0 0 0
322 1 -10.025613382793628 1.4867540404904083 1.5085063052880783 0 0 0
329 1 -11.457999318589046 2.9874140054296072 0.16263074829123383 0 0 0
324 1 -7.547581409447437 1.638248113092006 1.363582863602272 0 0 0
339 1 -8.722983382254357 0.01945467870213264 3.0309277025002466 0 0 0
341 1 -6.20743461772296 0.1471865313666377 2.8728430095742237 0 0 0
326 1 -5.071003982636891 1.744011332253877 1.2363738704859024 0 0 0
343 1 -3.7495828912285796 0.2790675614422499 2.7526343567630787 0 0 0
328 1 -2.562152593950696 1.8696894520653287 1.2243243801973756 0 0 0
849 2 -1.342890341468493 0.3731571190874741 2.7285372619219244 0 0 0
330 1 -10.018909026045486 4.174563853710236 1.9135834351836964 0 0 0
449 1 -11.441283376318548 5.744229006524953 0.39592756183605565 0 0 0
451 1 -8.886264913000607 5.726648106502153 0.2965774049686039 0 0 0
332 1 -7.550235456236053 4.221488975026562 1.8160074219221205 0 0 0
453 1 -6.411919881047941 5.843501572958322 0.176244761723224 0 0 0
334 1 -5.085808593725734 4.3321801992436315 1.689034184747968 0 0 0
336 1 -2.598094371665016 4.635482097641271 1.4018208395659213 0 0 0
857 2 -1.265341533549473 3.250920682188582 2.781207020560348 0 0 0
345 1 -11.320056655372206 2.7161444865643456 3.3759799668582766 0 0 0
338 2 -9.886876392058054 1.1555585359382166 4.955524673249547 0 0 0
347 1 -8.75448412845671 2.665620152771101 3.421609840222022 0 0 0
340 1 -7.364614054026324 1.1636065429678426 4.930432397688094 0 0 0
349 1 -6.240107777840033 2.710217465851629 3.3427623015092207 0 0 0
351 1 -3.779687654774731 2.858252972547273 3.2307213642471764 0 0 0
342 1 -4.847185698220877 1.2391588035011114 4.862394074752807 0 0 0
344 1 -2.3353437751341994 1.3475460222062687 4.7350545687650225 0 0 0
346 1 -10.05482613025147 4.5789057086775475 4.600232628518348 0 0 0
365 1 -6.230345925158108 3.1616876670463285 5.9957451224924725 0 0 0
348 1 -7.550049681366208 4.671440387127829 4.444523553199052 0 0 0
367 1 -3.7563254435008067 3.3112715057818196 5.8893082384246584 0 0 0
350 1 -5.0877420978838614 4.7972045784817485 4.341244313180702 0 0 0
873 2 -1.3581032413417593 3.3444976880696085 5.714019469186831 0 0 0
352 1 -2.5709500818975117 4.843266198964105 4.246249935162512 0 0 0
465 1 -11.364247193147923 6.047073525362731 3.104882456378895 0 0 0
354 1 -10.040776273956732 1.4341582330853362 7.679362045491105 0 0 0
361 1 -11.389305405602395 2.898711267028269 6.138969048971721 0 0 0
356 1 -7.370716868545215 1.5380048027016866 7.646860823831542 0 0 0
358 2 -4.789227152656936 1.6805081890285811 7.525441485964203 0 0 0
881 2 -0.9339668419901273 0.24243235370014807 9.046004096645897 0 0 0
360 1 -2.282752632219777 1.8301451319684767 7.511057629422696 0 0 0
362 1 -10.055068602888714 4.275552493135217 7.811420098004457 0 0 0
481 1 -11.433859082569864 5.839651128970626 6.291851232509128 0 0 0
497 1 -11.50317963827405 5.929116864046942 9.077031944979627 0 0 0
364 1 -7.434203084490121 4.268377037817651 7.943073919306877 0 0 0
485 1 -6.2406084760615785 5.820875739768223 6.382902977951239 0 0 0
483 1 -8.762136003659624 5.763916646300856 6.397952592785671 0 0 0
363 1 -8.730665103513807 3.0502262659197426 6.093693624966386 0 0 0
487 1 -3.755362666654335 5.99346405360624 6.275924718770926 0 0 0
366 1 -4.881437096709407 4.365259256780963 7.911930324382062 0 0 0
368 1 -2.2826536892151914 4.611185224090742 7.754580418631702 0 0 0
370 1 -10.178562701212059 1.3498739280945773 10.700716758750229 0 0 0
377 1 -11.541482775720851 2.8711734036475747 9.167387508060914 0 0 0
265 1 -11.63959857601758 2.9374443739583076 12.062934799516285 0 0 0
379 1 -8.762118202044375 2.7837412169638287 9.348626344994882 0 0 0
372 1 -7.448497480147649 1.285315032845124 10.836388342668558 0 0 0
381 1 -6.094014345569032 2.7595176410000484 9.446340804015762 0 0 0