LAMMPS data file via write_data, version 2 Aug 2023, timestep = 10000, units = metal

1024 atoms
2 atom types

-11.960657321292969 11.960657321292969 xlo xhi
-11.960657321292969 11.960657321292969 ylo yhi
-11.960657321292969 11.960657321292969 zlo zhi

Masses

1 55.847
2 26.982

Atoms # atomic

2 2 -10.827933796329372 -10.476830911446044 -10.830428572303413 0 0 0
4 1 -8.261140967325016 -10.545390181362539 -10.693121083658932 0 0 0
10 1 -10.895183512316274 -7.6889400174094495 -10.48314158986737 0 0 0
131 1 -9.517695311657867 -6.022557791854998 -11.80050608144178 0 0 0
133 2 -6.944073028128173 -6.243542886725241 -11.7379285634364 0 0 0
12 2 -8.322502890264955 -7.866444690574097 -10.340140167776777 0 0 0
130 1 -10.98649396932238 -4.437027693460415 -10.39592855535569 0 0 0
147 1 -9.617828217274056 -6.0354618734133885 -8.9974190667403 0 0 0
132 2 -8.373560736200043 -4.284383192874844 -10.338324350771027 0 0 0
138 2 -10.97286581415942 -1.7501306496110185 -10.141675715317112 0 0 0
259 1 -9.837881798056527 -0.06445062628300958 -11.662476651119057 0 0 0
261 1 -6.919859867504675 -0.06133763301958632 -11.564424297760954 0 0 0
140 1 -8.370852967113692 -1.6578064280760958 -10.150603741545146 0 0 0
27 2 -9.622138919318395 -9.45344077798722 -8.785482614405787 0 0 0
18 1 -11.184634362353744 -10.753347633195483 -7.454727033263844 0 0 0
29 1 -7.036508107824058 -9.450544562426494 -8.698077571425776 0 0 0
20 1 -8.430978872548689 -10.954728419507337 -7.291744273108176 0 0 0
26 1 -11.018761323026006 -7.621405841656538 -7.506262290644409 0 0 0
28 2 -8.36569570239207 -7.589729621978524 -7.41277823908218 0 0 0
149 1 -7.049893469272131 -6.03360574954591 -8.94536796873668 0 0 0
146 1 -11.118815331608657 -4.80320093576172 -7.334115017370575 0 0 0
155 1 -9.688274543636746 -3.166124107228806 -8.59661626005709 0 0 0
148 2 -8.50714756327169 -4.858987438822155 -7.032063133087996 0 0 0
157 1 -7.032168742037057 -3.2288050723588744 -8.516188983453977 0 0 0
154 1 -11.203167954763218 -1.4311213453542955 -7.462273121300535 0 0 0
171 1 -9.825915657072587 -2.927310468815853 -6.046631807572899 0 0 0
156 1 -8.423704445314172 -1.2331902132500816 -7.333068715668801 0 0 0
141 1 -6.991002677723795 -2.8340122536023378 -11.957640807927177 0 0 1
34 1 -11.407240353163113 -10.683010434767866 -4.4540469622639405 0 0 0
43 2 -9.90158466454014 -9.317300925859405 -5.889765989986994 0 0 0
36 1 -8.574639904234996 -10.702106252983874 -4.26112190780923 0 0 0
45 1 -7.203804074548043 -9.246801518789733 -5.888090701388443 0 0 0
42 1 -11.320141970921018 -7.943278385316298 -4.260673709127904 0 0 0
163 1 -9.847577753569738 -6.373251856834926 -5.599470402519821 0 0 0
44 2 -8.536525680598187 -7.991870855177881 -4.049070974587627 0 0 0
165 1 -7.184514509856459 -6.3939110275656255 -5.634896730437912 0 0 0
162 2 -11.191623255901378 -4.352451729321868 -4.58717916407831 0 0 0
164 1 -8.544380260534275 -4.409336282836529 -4.425160905170677 0 0 0
170 1 -11.420968437027177 -1.5613467730138888 -4.679666751401002 0 0 0
187 1 -10.013626476441909 -2.77574193552843 -3.0684035579842526 0 0 0
172 1 -8.56883014302179 -1.2789339774743858 -4.58739683013604 0 0 0
173 2 -7.167101552116873 -2.8589485009773417 -5.900266361915451 0 0 0
189 1 -7.170940958960797 -2.7266842545079073 -3.1497728051333014 0 0 0
50 2 -11.312463832573341 -10.76119917703233 -0.849750171063644 0 0 0
59 1 -10.057857370662104 -9.463047431174726 -2.6031816240303445 0 0 0
61 1 -7.137199695789749 -9.469125978853638 -2.5899401182893014 0 0 0
52 1 -8.648483745810916 -10.859786985434818 -1.08755457498914 0 0 0
58 1 -11.348620335723377 -7.517796300301733 -1.469348132495167 0 0 0
179 2 -10.020343571921133 -6.061744845099005 -2.9383106230302967 0 0 0
60 1 -8.536910740680904 -7.694907219807231 -1.461045495688499 0 0 0
178 1 -11.388098148667074 -4.390814047652787 -1.620054849342951 0 0 0
195 1 -9.84049699990658 -5.951984433192899 -0.269028350534634 0 0 0
181 1 -7.274211292403467 -6.038553312502337 -2.960074710000669 0 0 0
180 2 -8.555200141161722 -4.176848945498286 -1.649326767425745 0 0 0
197 1 -7.185525558056284 -5.79692370857737 -0.23159270093467516 0 0 0
203 1 -10.094607473625747 -2.762235310848334 -0.1840329943569383 0 0 0
186 1 -11.605842465170474 -1.4418062301806553 -1.6225501948318042 0 0 0
205 1 -7.172228062222963 -2.6782296504401133 -0.25345239939956077 0 0 0
188 1 -8.61339457413522 -1.3107370344219866 -1.6566569713413557 0 0 0
307 2 -10.163766039419802 -0.012398496366540505 -3.062740072868701 0 0 0
66 1 -11.332438372357922 -10.585822122670315 1.694168054506456 0 0 0
68 1 -8.579146529997075 -10.69159488745512 1.6443774774701128 0 0 0
77 2 -7.300657480763943 -9.136167994788371 0.1446580199303316 0 0 0
93 1 -7.098411588298739 -9.029777628099676 2.8539523373901075 0 0 0
75 1 -9.958288576765266 -8.952783023421036 0.14812379783294255 0 0 0
74 1 -11.249153082028052 -7.21471077497925 1.4527789708024315 0 0 0
91 2 -9.918547217191275 -8.898211414284352 2.7426490565902157 0 0 0
76 1 -8.454958552893572 -7.280442820066026 1.3982918097699992 0 0 0
194 2 -11.232352956295076 -4.550973519080303 1.1133278078073061 0 0 0
211 1 -9.807149777541731 -5.55862439794871 2.9172142354313406 0 0 0
196 1 -8.560193902677712 -4.226353818438975 1.1032731819820352 0 0 0
213 2 -7.060956271023959 -5.47504275553941 2.5745461987428735 0 0 0
202 2 -11.617057870209798 -1.255779680250074 1.1539220710704543 0 0 0
219 2 -9.9264295415838 -2.767809821466595 2.628931518245914 0 0 0
204 1 -8.600241210486592 -1.297423191058178 1.245553884529256 0 0 0
221 1 -7.1509261328805165 -2.7828310253594757 2.7524316822976633 0 0 0
82 1 -11.069030131695316 -10.422506882856345 4.465535648324888 0 0 0
84 2 -8.3759162715294 -10.533243768214598 4.414194021233341 0 0 0
107 2 -9.771686120753623 -8.754861661331049 5.8518732518424015 0 0 0
90 2 -11.186046989247723 -7.145116554564407 4.270556246479459 0 0 0
109 1 -7.05588417021631 -8.73456152943886 5.659738661266244 0 0 0
92 2 -8.323851212339937 -7.236420396792279 4.085457313819776 0 0 0
210 2 -11.0688480619034 -4.125632423289775 4.550320095828761 0 0 0
212 2 -8.384854619491161 -4.076979853508106 4.459834745725258 0 0 0
218 1 -11.186014387159084 -1.3781133501975886 4.556481897734634 0 0 0
237 1 -7.011278045496616 -2.5701251750886405 5.7820113612612065 0 0 0
220 1 -8.590737363129813 -1.3169900391689255 4.3080491399605485 0 0 0
98 1 -11.01212641448679 -10.299474122861627 7.42044148483481 0 0 0
100 1 -8.367607425489739 -10.296530782618298 7.222842246273246 0 0 0
117 2 -6.928114520984208 -11.898230948065066 8.550401312550996 0 0 0
106 1 -10.926357094221308 -7.479300192217866 7.609666484003207 0 0 0
108 1 -8.315510015678075 -7.555455279414782 7.525206050387251 0 0 0
229 2 -6.9957324166088295 -6.008612612095086 6.079944611847201 0 0 0
226 2 -11.012825940723493 -4.106475283273783 7.698737175162739 0 0 0
243 1 -9.584540035468969 -5.736365748352841 8.830509997560247 0 0 0
227 2 -9.715840470729058 -5.864604154996846 6.155846057106686 0 0 0
228 2 -8.160160836393366 -3.9745245967581324 7.371271236022043 0 0 0
245 1 -6.976724390141781 -5.684181633056693 8.70862237505048 0 0 0
234 1 -11.149585486958664 -1.424002888758453 7.666241374136554 0 0 0
235 1 -9.763713421233184 -2.74926704781656 6.097212530626017 0 0 0
236 1 -8.29079100522315 -1.3363317978840974 7.605925000562636 0 0 0
123 1 -9.591633267422296 -9.01236738820733 9.094716847060738 0 0 0
114 2 -10.923678208441133 -10.691562860335102 10.247660556462346 0 0 0
125 1 -6.905045246353094 -9.149329996665191 8.977062247450315 0 0 0
116 1 -8.188576314176707 -10.74393884155799 10.390333750266915 0 0 0
11 1 -9.539057799172353 -8.933681724030208 11.635978191854816 0 0 0
122 1 -10.899964805354386 -7.262621858478401 10.400090525074381 0 0 0
13 1 -6.912561316267935 -8.89532328343263 11.686313864808481 0 0 0
124 1 -8.220810887407486 -7.2635568624470785 10.212404430077084 0 0 0
242 1 -10.935555836486751 -4.5077003918695455 10.561707153646777 0 0 0
244 2 -8.239203535739136 -4.520318020332211 10.547843622584095 0 0 0
253 1 -6.924128009092647 -2.931426691698866 9.197979912315777 0 0 0
139 1 -9.672614520409311 -2.8716460334036604 11.942133183979113 0 0 0
250 2 -11.011215191144924 -1.3553890250978775 10.449435330554623 0 0 0
251 1 -9.57076587420086 -2.8677884706029815 9.153336319975205 0 0 0
252 1 -8.294480943800036 -1.1966154220327314 10.577006666035189 0 0 0
258 1 -11.291909979126725 1.6153758175132502 -10.428714165596453 0 0 0
275 1 -9.85836858616612 0.0986603016550088 -8.981188067925972 0 0 0
260 1 -8.419153734297213 1.6755145985470017 -10.328188167821194 0 0 0
412 1 -8.467891552264994 10.357657960966206 -7.409758230745316 0 0 0
267 1 -9.875497435264556 3.005499594700177 -11.856231842687619 0 0 0
266 1 -11.424277416873117 4.485829936833572 -10.531464172647588 0 0 0
403 2 -9.92595039040183 5.899557394843497 -9.157631635159856 0 0 0
283 1 -9.942684916468824 3.1439065200060243 -9.005564012516917 0 0 0
268 1 -8.40911506542512 4.540653959988027 -10.488937154477604 0 0 0
269 1 -7.010090401050609 3.046095445891865 -11.913817426396392 0 0 0
386 1 -11.27352603047456 7.451899445111999 -10.598771630233093 0 0 0
388 2 -8.38129576001581 7.459836446062902 -10.56646600647954 0 0 0
394 2 -11.08046248143269 10.249078072524943 -10.861175835032284 0 0 0
19 1 -9.799724732635742 11.776757292133755 -9.181787036296384 0 0 0
396 1 -8.378949876418991 10.136017373160257 -10.567826079872791 0 0 0
410 1 -11.320228836639593 10.473951311435874 -7.481320782380496 0 0 0
21 2 -7.0862171345078835 11.694509605232998 -9.075523870262984 0 0 0
274 1 -11.36395826652457 1.5859679984953465 -7.648396071064061 0 0 0
413 1 -6.945711469241442 8.905205073512263 -8.839050110363168 0 0 0
276 1 -8.542376650053965 1.6167014497926968 -7.528491426447123 0 0 0
277 2 -7.114976976107546 0.11518837732360095 -8.9035776315875 0 0 0
299 2 -10.079018783809971 3.105497693235566 -6.190407423673374 0 0 0
282 1 -11.478006537395771 4.577355904415368 -7.634093184665447 0 0 0
419 2 -10.226081243731526 6.050170204224041 -6.06131228154559 0 0 0
285 2 -7.2033731539967 3.352569386869981 -8.730800794687607 0 0 0
284 1 -8.68159090567966 4.726584590162189 -7.4525081880016355 0 0 0
411 2 -9.977598038389937 8.969087895472839 -8.904781260625256 0 0 0
402 1 -11.436888815225108 7.433691534215709 -7.6879427399218665 0 0 0
405 1 -6.9940953209432175 6.063064691544391 -8.94263285928976 0 0 0
404 2 -8.452634074688175 7.493883354407966 -7.491643160114742 0 0 0
427 1 -10.08086848962536 8.864402127429582 -6.007901166451691 0 0 0
290 2 -11.465485123735355 1.7750450427838402 -4.455413209170224 0 0 0
53 1 -7.2141880213694485 11.688354907887964 -2.7259601940586213 0 0 0
292 1 -8.850121765467096 1.7831741672634223 -4.380063710293077 0 0 0
293 2 -7.32087882946789 0.4590788712010474 -5.782897322089238 0 0 0
309 1 -7.267707123255275 0.2607695580887045 -3.109873817496737 0 0 0
298 1 -11.631161045835336 4.591817845554235 -4.595076669846358 0 0 0
300 1 -8.90584510801895 4.583752681333467 -4.430718999656209 0 0 0
317 1 -7.31234369317102 3.162703967771612 -3.00019419875051 0 0 0
301 1 -7.422348698393287 3.1588237428234285 -5.944922158310342 0 0 0
418 2 -11.721694105714741 7.482460661546541 -4.546683552436194 0 0 0
444 1 -8.830928553755891 10.218830875880169 -1.3024044408871678 0 0 0
420 2 -8.947700496861637 7.463853381323565 -4.338941637329425 0 0 0
429 1 -7.249057572310655 8.809522259641504 -5.742296461803255 0 0 0
421 1 -7.3947405377719 6.13419366468158 -5.771869777956308 0 0 0
426 2 -11.626004269761191 10.369231040822214 -4.5977926841932435 0 0 0
35 1 -9.946229526318573 11.753687468558379 -5.823816060869511 0 0 0
428 1 -8.762672076666272 10.240388381726543 -4.2866083621254845 0 0 0
37 1 -7.204237755666603 11.619861290773134 -5.599625645757118 0 0 0
323 1 -10.123501369129889 0.10954093922814234 -0.24522470776052632 0 0 0
306 1 -11.667741129995527 1.5348137113945042 -1.6281964782068237 0 0 0
331 1 -10.214813011318677 2.96291829522463 -0.1072271052833623 0 0 0
308 1 -8.752295248354562 1.6355017860776668 -1.632864436764738 0 0 0
325 1 -7.26156229368547 0.17924626493479984 -0.19258963021206804 0 0 0
314 1 -11.771914431990592 4.5623434036748405 -1.3407496346820789 0 0 0
315 1 -10.273900452301856 3.2515877466182213 -2.8584850524162047 0 0 0
435 1 -10.34290821487247 6.054583702041115 -2.836282078892277 0 0 0
437 2 -7.4199100919569405 5.94452127878371 -2.894561722491452 0 0 0
333 1 -7.3441464595589165 2.994238344018351 -0.04635944904559835 0 0 0
316 1 -8.8072628653411 4.527583826766373 -1.4117323114331497 0 0 0
434 2 -11.745298456736595 7.262720278238184 -1.2412179011040103 0 0 0
443 1 -10.398301648159284 8.846958865435226 -2.81640910056372 0 0 0
445 2 -7.4305403467507345 8.823022416650193 -2.8191806183537573 0 0 0
436 2 -8.841347891343023 7.358971863885416 -1.1852779234726643 0 0 0
442 2 -11.525568812887384 10.222934392011878 -1.019643312972849 0 0 0
51 2 -10.096792011422934 11.757995504527665 -2.891636578891794 0 0 0
291 1 -10.045513186885891 0.20349664995891203 -5.967626842460118 0 0 0
322 1 -11.594314545860957 1.4809636923729341 1.2894753662082297 0 0 0
339 2 -10.00921769157896 0.09417695819508619 2.755088695594677 0 0 0
324 1 -8.69164419806776 1.5329706764924498 1.3256620043678518 0 0 0
341 1 -7.221057686525763 0.11594722890044266 2.8180555848677473 0 0 0
349 1 -7.241808450720447 2.924856439152869 2.8894239656470977 0 0 0
330 2 -11.61075448536161 4.227470091676456 1.5387909496365968 0 0 0
467 1 -10.10224961965357 5.678931258842968 3.060988739960391 0 0 0
451 1 -10.257678015489951 5.861374722829776 0.140297672127422 0 0 0
469 2 -7.166130277076268 5.731349089761598 2.8177118607734397 0 0 0
332 1 -8.771358285047441 4.326498708609654 1.4595992303656053 0 0 0
453 1 -7.2980386532122585 5.866121765909027 0.09763437560933004 0 0 0
450 2 -11.4611131041536 7.190830218998624 1.7357233184169765 0 0 0
459 1 -10.205759491822876 8.707960075034313 0.26258475766653017 0 0 0
452 1 -8.712926769185868 7.245668486124163 1.6196935900131029 0 0 0
461 1 -7.269907186258043 8.715809468918255 0.16338038935112564 0 0 0
458 1 -11.56427205861442 10.207135870165231 1.8055558649571117 0 0 0
67 1 -10.054829058646318 11.573204252874573 0.4268982106094449 0 0 0
83 2 -10.063433458251087 11.651893153610741 3.0589928052712607 0 0 0
460 1 -8.64920206008225 10.052931654145329 1.7824157716664535 0 0 0
69 2 -7.410253678235043 11.443856733837421 0.3111904078302288 0 0 0
347 1 -10.10995728047665 2.8444368547367236 2.9606685873874747 0 0 0
338 2 -11.288153206798796 1.429612398869636 4.585212421190413 0 0 0
340 1 -8.60063091834804 1.445518609435033 4.446100049754509 0 0 0
357 1 -7.070748841410598 0.024575564952620626 5.823205557212431 0 0 0
346 1 -11.513222896997297 4.249761459646494 4.615687628639651 0 0 0
365 1 -7.098380521159341 2.914427985555362 5.777444347563545 0 0 0
348 1 -8.601574400921544 4.302785150489699 4.437391459229856 0 0 0
475 1 -10.034461657639978 8.655794388071033 3.236211071286187 0 0 0
466 1 -11.413561399719754 7.064923444043133 4.656522257585846 0 0 0
477 1 -7.150622257606848 8.582382434203893 3.0702724897536555 0 0 0
468 2 -8.624899300581301 7.079209762589298 4.555941671898779 0 0 0
493 1 -7.094969452603561 8.582990731216464 5.9559130856866185 0 0 0
474 1 -11.34714684866351 10.305766476366626 4.7198048336828755 0 0 0
101 1 -7.098616279562376 11.779737793272897 5.9016438794423465 0 0 0
85 1 -7.153525173778072 11.685637252799415 3.107363737719186 0 0 0
476 2 -8.454130724576409 10.124754717645112 4.522390475741401 0 0 0
354 2 -11.199639774193972 1.4477984355050197 7.729676802333256 0 0 0
355 1 -9.84325314841721 0.021514374690468848 6.13457881532939 0 0 0
363 1 -9.964081465014086 2.877653515965374 6.048777311425919 0 0 0
356 1 -8.38441792070483 1.5394084565838837 7.3711264758855535 0 0 0
373 1 -6.975734288650065 0.24765087684969558 8.960853841911407 0 0 0
362 1 -11.400966300212541 4.262720608568757 7.613276193309523 0 0 0
483 1 -9.974176632234686 5.616637004797447 6.088237246564032 0 0 0
364 1 -8.417357100699377 4.22872232292412 7.547728800005076 0 0 0
485 2 -7.109819367078038 5.60557268211106 6.038985406296544 0 0 0
482 1 -11.351167474910097 7.06423244213062 7.556774502738631 0 0 0
507 2 -9.99873152672419 8.607453666462781 8.916851904478525 0 0 0
491 1 -9.927180243593824 8.58786300464536 6.039029844485223 0 0 0
484 1 -8.469330647669747 7.108771504170679 7.488543372070885 0 0 0
509 2 -7.000367401075624 8.600194546063433 8.773285679509366 0 0 0
490 1 -11.215990240393156 10.337968689366395 7.421958011931947 0 0 0
99 2 -9.88977560574946 11.907002531636165 6.032562338045298 0 0 0
115 1 -9.615508365344478 11.95622315556699 8.664312807163084 0 0 0
492 2 -8.454457080219361 10.117088099504063 7.378684792245421 0 0 0
371 1 -9.694623916476937 0.11207829482491721 9.039782478291965 0 0 0
370 1 -11.19933824546892 1.42456824891057 10.637113933135954 0 0 0
379 1 -9.802942896692606 2.8502973432545713 9.11564560064606 0 0 0
372 2 -8.428788944136219 1.3696575999129812 10.80671693729541 0 0 0
381 2 -7.059099166450437 2.831417128384602 9.182460621039231 0 0 0
499 1 -9.883382979229044 5.712316753125547 8.977040832865574 0 0 0
378 2 -11.310644875087497 4.357057610413396 10.496458655730859 0 0 0
380 1 -8.479373514510737 4.392118053038996 10.544681375695705 0 0 0
501 2 -7.075317557027123 5.712027881121503 9.044550921934771 0 0 0
498 1 -11.354828143159361 7.193770678466784 10.403125831714922 0 0 0
395 1 -9.806521052795723 8.794015953107468 11.63911747115871 0 0 0
397 2 -6.988173338855423 8.784920648292516 11.675528836752395 0 0 0
500 1 -8.427294321410779 7.290747949975468 10.290995360123498 0 0 0
389 1 -7.038986292766231 5.967221556384908 11.870343406905166 0 0 0
506 1 -11.112571876210563 10.445948406640223 10.218378011305138 0 0 0
3 1 -9.675565536448651 11.744945956717624 11.824151325705541 0 0 0
508 1 -8.323129522328902 10.297093410938192 10.115212429830738 0 0 0
387 1 -9.89204653765836 5.9102597536222214 11.929488357344235 0 0 -1
5 2 -7.073395581897448 11.632983464120239 11.912621099654158 0 0 -1
8 1 -3.0173105844597083 -10.661894795738863 -10.51029610535953 0 0 0
6 1 -5.660827275050199 -10.626955086043422 -10.605716881394992 0 0 0
514 1 -0.1883925086225768 -10.535023280558667 -10.434932041707315 0 0 0
151 1 -4.465985629490198 -6.0278466494445615 -8.99065408458535 0 0 0
135 1 -4.422389369276457 -6.300991023290297 -11.649537824368695 0 0 0
14 1 -5.692606407267069 -7.954409331515852 -10.15275968306076 0 0 0
16 1 -3.1308537253814093 -7.937296468091491 -10.113455314721984 0 0 0
522 2 -0.38863654136905523 -7.726014877668464 -10.243325980895142 0 0 0
641 1 -1.8102865526976204 -6.232480201244835 -11.669864368125733 0 0 0
134 2 -5.661400204371646 -4.324084130053594 -10.510255298395514 0 0 0
136 2 -3.046368165726331 -4.3990511673264034 -10.48092229598977 0 0 0
642 1 -0.2875502961342654 -4.618711681913333 -10.192442410965485 0 0 0
142 2 -5.595841941591563 -1.6856111509120304 -9.950524884157682 0 0 0
263 2 -4.211518863792922 -0.00203344790651738 -11.558167039626062 0 0 0
650 1 -0.014382591824125763 -1.5527066884168201 -10.052612049164438 0 0 0
160 1 -2.860942829573387 -1.3411509251544662 -7.197945685856203 0 0 0
144 1 -2.8466848536729907 -1.6056270666754635 -9.992921526611799 0 0 0
649 2 -1.5875448740144982 -2.7591532174872055 -11.740938949592058 0 0 0
31 1 -4.4621514538383895 -9.494661266631521 -8.629399910316506 0 0 0
22 1 -5.768845036829073 -10.995407900814497 -7.149791231990186 0 0 0
24 1 -2.979683192745846 -10.915460583781014 -7.233464294343563 0 0 0
537 2 -1.8605349663847317 -9.425181386516659 -8.761411786808447 0 0 0
32 1 -3.047165199816528 -7.696349593811634 -7.363653694679465 0 0 0
30 1 -5.741441419002894 -7.656977061647109 -7.38924266783386 0 0 0
657 2 -1.9547348374234148 -6.120285432320838 -8.915497411253696 0 0 0
538 2 -0.2975046468173262 -7.669148988364607 -7.254174578902831 0 0 0
150 2 -5.663654623856081 -4.947692903211396 -7.096470920575534 0 0 0
159 1 -4.339854035562223 -3.1955738856489866 -8.511078706741694 0 0 0
152 1 -3.062179830226819 -4.886728835653151 -7.149722568884533 0 0 0
665 2 -1.7182345021683736 -3.2552753450202307 -8.435349753492007 0 0 0
658 1 -0.1821176677826735 -4.955310466548212 -7.289312104816156 0 0 0
158 1 -5.765066698843162 -1.2692694384864074 -7.261432562896795 0 0 0
666 2 -0.03138530191827544 -1.5544315030344662 -7.266445010167655 0 0 0
143 1 -4.355497057414833 -2.730075049261578 -11.891461653536883 0 0 1
38 2 -5.770544296487592 -10.757693739406113 -4.333370949535195 0 0 0
40 1 -2.9803606860975793 -10.74233421398335 -4.151415314360056 0 0 0
47 1 -4.447434843985794 -9.267699435177105 -5.852183190867621 0 0 0
553 2 -1.8251846100133564 -9.299670157179776 -5.8024812263408325 0 0 0
546 2 -0.051109406651189765 -10.567525334864879 -4.240339431881469 0 0 0
46 1 -5.874823402768481 -7.987667516473057 -4.129265717317561 0 0 0
48 2 -3.151142086125314 -7.974895310869855 -4.063867876778178 0 0 0
167 1 -4.448133056117948 -6.452570106030099 -5.579510592315247 0 0 0
673 2 -1.881209561727982 -6.183175921984019 -5.628068167055822 0 0 0
554 1 -0.2064312403042816 -7.7922858112323725 -4.265009490616278 0 0 0
166 1 -5.81202211430234 -4.434963894035045 -4.4978501921914615 0 0 0
168 1 -3.1790024607117893 -4.5411002697549945 -4.314278317843006 0 0 0
681 1 -1.524600479739273 -3.232452998110241 -5.817442413132614 0 0 0
674 2 -0.0688349068559453 -4.8312623414165765 -4.355555654862833 0 0 0
697 2 -1.6503752844289632 -3.0390790476260627 -3.1163538107437114 0 0 0
175 2 -4.278824074361073 -2.9275046472737247 -5.889989021291678 0 0 0
174 1 -5.736691385264238 -1.2221809992337649 -4.604026942817846 0 0 0
191 2 -4.487558165159742 -2.7555788507158865 -3.0334333989586186 0 0 0
176 1 -2.9284505675480945 -1.2774662434056634 -4.488174245019308 0 0 0
63 1 -4.532479728259675 -9.45036652511529 -2.5878341327218672 0 0 0
54 2 -5.783862908026809 -10.90481829725622 -1.0353064195657558 0 0 0
56 1 -3.0122516933160797 -10.858717048460312 -1.1185995159987492 0 0 0
569 2 -1.6746193143776238 -9.410175451901535 -2.5423224303016987 0 0 0
183 2 -4.665319457575047 -6.0369584602659 -2.9941641324057375 0 0 0
64 1 -3.146508934327679 -7.521365351915359 -1.4084013028272757 0 0 0
62 1 -5.836103564489256 -7.562609728687338 -1.3990793971619573 0 0 0
689 2 -1.7314585087572913 -6.07161058602397 -2.843293229744927 0 0 0
570 2 -0.011480159805649875 -7.579059244318417 -1.4746373682558982 0 0 0
182 1 -5.8129942542141295 -4.276105799432361 -1.6987713673044675 0 0 0
199 2 -4.527002393770127 -5.705090486158137 -0.14216840768413333 0 0 0
184 1 -3.0245352663169824 -4.414727111101872 -1.6434335933686282 0 0 0
705 2 -1.6388685148427253 -5.901433533856544 -0.17296526200809256 0 0 0
190 1 -5.794313673513726 -1.1968589305829054 -1.7233250447203763 0 0 0
207 1 -4.349683795038559 -2.658177821022342 -0.32396040979430984 0 0 0
192 1 -2.8251555625832987 -1.1848949554533152 -1.73983864972275 0 0 0
713 2 -1.640045559596748 -2.9434388649776078 -0.2537581615714572 0 0 0
70 1 -5.749612886244739 -10.818706228188338 1.5578628256534786 0 0 0
72 1 -2.950883655731304 -10.762658308495867 1.5892418693187886 0 0 0
79 1 -4.459559022047875 -9.139514793074166 0.1407074044436869 0 0 0
95 1 -4.399160754421043 -8.93101125590243 2.85036095382209 0 0 0
585 2 -1.8162816891679177 -9.10515233287103 0.13017076907671257 0 0 0
601 2 -1.7973077660754604 -8.901594359557798 2.8455881007836448 0 0 0
78 2 -5.757222178167975 -7.435949039964233 1.3719218254425571 0 0 0
80 1 -3.045929463328942 -7.2953907641074816 1.332471533470835 0 0 0
586 2 -0.05018116999869467 -7.448101095379732 1.3470800123321998 0 0 0
198 1 -5.766153921210456 -4.077235697737317 1.117878171839462 0 0 0
215 1 -4.469899800275788 -5.61592645589349 2.578836770620064 0 0 0
200 1 -2.960950303150349 -4.285367665357206 1.129099811134029 0 0 0
721 2 -1.6641063584976843 -5.633096840314521 2.622531479253515 0 0 0
223 2 -4.314204316758229 -2.730543779645232 2.557141029738338 0 0 0
206 1 -5.7907367831019325 -1.277522457874712 1.2655038902174458 0 0 0
729 1 -1.3425053542793106 -2.921338015222713 2.7478932820648097 0 0 0
208 1 -2.805553975336675 -1.3136868923483784 1.138397749221188 0 0 0
86 1 -5.697224926986497 -10.475098734681513 4.379148059285328 0 0 0
88 1 -2.9926138849049155 -10.552239650466229 4.308002610513775 0 0 0
609 2 -1.4771963596441706 -11.906514581340426 5.691068501967724 0 0 0
94 1 -5.744497628875459 -7.152026666307216 4.115966304566656 0 0 0
96 1 -2.997669916936769 -7.138017057687184 4.089942700989741 0 0 0
111 1 -4.3195924798302485 -8.67372648695334 5.591665229477098 0 0 0
745 2 -1.4404153771639614 -2.926176883729327 5.597407472681691 0 0 0
617 1 -1.5452201464242703 -8.706048531897657 5.544295547249523 0 0 0
737 2 -1.4871191307709122 -6.030236510389314 5.690379345574703 0 0 0
214 1 -5.711653282955507 -4.317975118308177 4.443668698335529 0 0 0
216 2 -3.136407006387447 -4.315162468728298 4.274497990197794 0 0 0
222 1 -5.6688794558075335 -1.3237726045061577 4.139293378576597 0 0 0
239 2 -4.4161743411197145 -2.5653102924410653 5.816254486264972 0 0 0
224 1 -2.8322403720166105 -1.4123496005254577 4.240876151853621 0 0 0
594 2 -0.02523948425175664 -10.238334194324013 4.174803443782079 0 0 0
102 1 -5.638739233140318 -10.252895087360997 7.060103540844903 0 0 0
104 1 -2.975876487250418 -10.258631554671881 7.019534655829381 0 0 0
127 1 -4.308474731099732 -9.139442789459626 8.981441369633846 0 0 0
119 1 -4.313924362280734 -11.8119750642064 8.58614488429996 0 0 0
625 2 -1.6664211893846352 -11.818327134972565 8.688546094893885 0 0 0
610 2 -0.24749484893483645 -10.12552778054969 7.1685837398388665 0 0 0
110 1 -5.62284161889494 -7.5706653971610365 7.479376745289364 0 0 0
231 2 -4.354451925326027 -6.049521351970253 6.031254952035727 0 0 0
112 1 -2.862754602852158 -7.451137348664061 7.3989692522243455 0 0 0
618 2 -0.2063990366198156 -7.398474355527688 7.542458761609878 0 0 0
230 1 -5.575157974876772 -4.115818402889388 7.245677102183889 0 0 0
247 1 -4.303021185555934 -5.677126714510676 8.737236628729868 0 0 0
753 2 -1.6900998297100163 -5.711290544818176 8.819031761234358 0 0 0
232 1 -2.8858487026256245 -4.267659170499848 7.128076592121456 0 0 0
738 2 -0.0013750738414702712 -4.427481898760129 7.306806101839447 0 0 0
238 1 -5.653494549408109 -1.3889958756481082 7.53176197435965 0 0 0
240 1 -2.8340050823789604 -1.4825398668440166 7.367312319787657 0 0 0
15 1 -4.367272899659641 -8.912355360835166 11.771879040137177 0 0 0
118 2 -5.525434805829379 -10.707691190850273 10.527518662642336 0 0 0
633 2 -1.75216781303224 -9.124081441446764 9.025759201944558 0 0 0
120 1 -2.954265763124183 -10.710497366704413 10.544521535037767 0 0 0
626 1 -0.2937154304886319 -10.500294976694326 10.60854767549246 0 0 0
521 2 -1.8849705202681564 -8.979702406199788 11.932701626617973 0 0 0
128 2 -3.0658707481887455 -7.230911922836362 10.315854523445964 0 0 0
126 2 -5.654355433924466 -7.264389228144693 10.102333138773156 0 0 0
634 1 -0.40850919387480045 -7.483936221712914 10.433644805582082 0 0 0
248 1 -3.0372568879961164 -4.482468079533466 10.729423406013776 0 0 0
255 1 -4.307399931803399 -2.963888501597228 9.165314149284356 0 0 0
246 1 -5.648465938911738 -4.637960380864298 10.65447585266861 0 0 0
761 2 -1.6774377966129115 -2.925919613386038 9.030443679080019 0 0 0
754 2 -0.48132281062677995 -4.678185429082547 10.792939275272337 0 0 0
254 2 -5.643658124184356 -1.2373207193886755 10.467347333052931 0 0 0
881 2 -1.4431316659779467 -0.0023546089050427953 8.916941161580207 0 0 0
256 1 -2.8519211338132 -1.3011547812764408 10.540799078482733 0 0 0
262 2 -5.682498952508717 1.7733695714449629 -10.343832111102243 0 0 0
264 2 -2.8369596552270036 1.8267228744661674 -10.068242879504007 0 0 0
271 1 -4.1179712932689405 3.030382339595055 -11.89043362362887 0 0 0
270 2 -5.540143725740544 4.704723741458523 -10.626384677404259 0 0 0
272 1 -2.739590879022153 4.531183673769334 -10.26317041596235 0 0 0
777 2 -1.4032053299267497 3.0131187275496365 -11.803495630662418 0 0 0
390 1 -5.5684821928029455 7.471128403203421 -10.59713333963287 0 0 0
392 1 -2.826295160287476 7.486950489082064 -10.398062547146036 0 0 0
897 2 -1.5042336005730896 5.967067746957499 -11.83742068628692 0 0 0
905 2 -1.5965768563845653 8.85038788029548 -11.945582473264912 0 0 0
398 1 -5.668993957075359 10.133833218451748 -10.61401389592625 0 0 0
769 2 -1.5263101649190134 0.017603443927975637 -11.512857693153679 0 0 0
400 1 -2.894324862356067 10.21790341496705 -10.438064350545377 0 0 0
921 2 -1.3825938902011672 8.949936788170364 -9.039511598783363 0 0 0
513 2 -1.6587740719658834 11.785077000125892 -11.903644303703892 0 0 0
278 1 -5.8117455792660175 1.7269365777293955 -7.362340674490611 0 0 0
279 1 -4.303673428977255 0.18239275076931993 -8.793199985883222 0 0 0
295 2 -4.348628889784991 0.30093478908692295 -5.994830493511718 0 0 0
280 1 -2.792321208229511 1.7362807438887249 -7.298860878408751 0 0 0
785 2 -1.4707779632101805 0.10926755896973862 -8.701035594813671 0 0 0
286 1 -5.739922668788212 4.676653143257809 -7.139212352953876 0 0 0
287 2 -4.350002322241254 3.3877215453911202 -8.620153294410693 0 0 0
288 1 -2.653501614697903 4.594641936047324 -7.354175523485877 0 0 0
793 2 -1.0613679030293979 3.143847047652381 -8.577060880752185 0 0 0
407 1 -4.275011087776953 6.0615899962228195 -8.796707610879205 0 0 0
406 1 -5.667720781487751 7.4289507646546165 -7.185662372491762 0 0 0
415 2 -4.368589253102072 8.823507480906192 -8.829677658443897 0 0 0
913 2 -1.4005483178819753 6.094408939907759 -8.87394934002899 0 0 0
408 1 -2.6882082007234667 7.587987792499421 -7.398280325678694 0 0 0
414 2 -5.684637450220878 10.270466834311769 -7.061333643921993 0 0 0
23 1 -4.444880418983396 11.675870517323913 -8.981528455961136 0 0 0
416 1 -2.8617296734793225 10.281343516442892 -7.374340241925099 0 0 0
529 2 -1.676958614397744 11.756602682283024 -8.997104539292467 0 0 0
311 2 -4.499161638882635 0.3106098519030597 -3.1195272653938297 0 0 0
294 1 -5.74756112792996 1.806820243055507 -4.5470600291022105 0 0 0
296 1 -2.863622744042807 1.6405802492879271 -4.352326331525579 0 0 0
817 2 -1.1588817868705397 0.2726155234369462 -3.0715005575979566 0 0 0
801 2 -1.3768792242905912 0.35002077749112553 -5.835312358224722 0 0 0