LAMMPS data file via write_data, version 2 Aug 2023, timestep = 10000, units = metal

1024 atoms
2 atom types

-11.929926439548307 11.929926439548307 xlo xhi
-11.929926439548307 11.929926439548307 ylo yhi
-11.929926439548307 11.929926439548307 zlo zhi

Masses

1 55.847
2 26.982

Atoms # atomic

2 2 -11.63750427764075 -10.286870386475549 -10.850146497420468 0 0 0
19 1 -10.247639170877669 -11.648812436457813 -9.339882363479644 0 0 0
27 2 -10.32038054519377 -8.960596736009913 -9.103736597410007 0 0 0
4 1 -8.893103299252648 -10.263925655327707 -10.871366790120664 0 0 0
21 2 -7.613582803550679 -11.660713935647404 -9.310483013749023 0 0 0
6 1 -6.128463861482356 -10.454891263242178 -10.78934511974529 0 0 0
10 1 -11.804183750200178 -7.484769386408006 -10.65145292595387 0 0 0
29 1 -7.478745872219624 -8.894218841096873 -9.234399792376468 0 0 0
12 2 -8.911347898739535 -7.488886174474379 -10.789755549105143 0 0 0
14 1 -6.051630251070737 -7.345642984739392 -10.74754337428575 0 0 0
147 1 -10.32626397559187 -5.91181040728187 -9.194839990134968 0 0 0
132 2 -9.031858533291821 -4.280563114415441 -10.485355649957045 0 0 0
155 1 -10.46033299401869 -3.1170230067483344 -9.030326567970459 0 0 0
149 1 -7.4826599598940655 -5.798663806387789 -9.273319224900463 0 0 0
157 1 -7.307690784242428 -3.1451567014057837 -9.12730217507801 0 0 0
156 1 -8.740380159421251 -1.7017959098760296 -7.508411165438235 0 0 0
138 2 -11.83543169120454 -1.4889576818998973 -10.230761030181135 0 0 0
259 1 -10.43885494381252 -0.09070260365015195 -11.749041291488918 0 0 0
140 1 -8.9499354234819 -1.6047085787082676 -10.438500025444217 0 0 0
139 1 -10.565723965789891 -2.9483509549391136 -11.841007926712923 0 0 0
291 2 -10.360249762649284 -0.5116817758184434 -6.214522765491663 0 0 0
277 2 -7.473878738493605 -0.2547624103959534 -8.978849484952045 0 0 0
18 1 -11.469767194648671 -10.450373748299594 -7.462391456586891 0 0 0
20 1 -8.838095781509258 -10.418170417521983 -7.526519066965415 0 0 0
22 1 -6.131015364417201 -10.490859848277118 -7.642342659279307 0 0 0
26 1 -11.686421032751008 -7.399262990190726 -7.618155041533624 0 0 0
43 2 -10.239990134129421 -8.704262262405734 -6.111802719234158 0 0 0
28 2 -8.819578004929362 -7.277602511265211 -7.814554388831433 0 0 0
45 2 -7.337342916910481 -8.7158227996825 -6.425881154555171 0 0 0
275 1 -10.29605269030986 -0.17329461233570037 -8.888580473209219 0 0 0
146 2 -11.819172767582637 -4.551397667931591 -7.610458458448978 0 0 0
171 1 -10.423642256430956 -3.116590816680253 -6.14707055205471 0 0 0
173 2 -7.157273063280524 -3.1183706003044156 -6.25998643129364 0 0 0
165 1 -7.330938230978008 -5.901170899301267 -6.258542201021791 0 0 0
148 2 -8.925439710682014 -4.415730856101269 -7.578304765097905 0 0 0
163 1 -10.22176779418917 -5.9376349703450115 -6.163999597724082 0 0 0
293 2 -7.155567045455756 -0.20040439953586686 -6.02493799934875 0 0 0
261 1 -7.4211112797606225 -0.06168641620635156 -11.857877778809542 0 0 1
34 1 -11.299779103487841 -10.353601423575626 -4.677341880669666 0 0 0
51 2 -9.915832531949793 -11.562657516402044 -3.1094034526998633 0 0 0
36 1 -8.659011909773765 -10.183198218821584 -4.829748271792739 0 0 0
53 1 -7.343602951467038 -11.524118671720032 -3.1712388840996026 0 0 0
42 1 -11.543867182910938 -7.39448613622386 -4.555600509715844 0 0 0
188 1 -8.441554682972768 -1.73783913729112 -1.5480226248257167 0 0 0
44 2 -8.651111017204189 -7.351187726477149 -4.476019765994466 0 0 0
162 2 -11.636497985633401 -4.433128030233479 -4.522497234441019 0 0 0
179 2 -10.232843094043481 -5.925266301802097 -3.1050272781353065 0 0 0
325 1 -7.085856676678633 -0.07258660368544351 -0.18375477615008912 0 0 0
164 1 -8.746309141947881 -4.472747272930645 -4.756902338289093 0 0 0
181 1 -7.262365936921295 -5.8296873908829525 -3.1620077892449374 0 0 0
189 2 -7.275101293342832 -3.117063760346068 -3.2440417657201293 0 0 0
170 1 -11.639006184165906 -1.661006420684245 -4.419401295670943 0 0 0
172 1 -8.730452794391724 -1.6800747296030252 -4.783799225016811 0 0 0
54 2 -6.00624600881512 -10.255490632752243 -1.2764001091385606 0 0 0
309 1 -7.184242245742676 -0.351673587069299 -3.2735156410131387 0 0 0
59 1 -10.026046303891025 -8.911015526698904 -2.9377390032643156 0 0 0
50 2 -11.322013742992969 -10.31512711942422 -1.1738586339026955 0 0 0
52 1 -8.628251728584285 -10.486169589556484 -1.1901293947519365 0 0 0
61 1 -7.336398884331235 -8.893913439132344 -2.9274598182742446 0 0 0
58 1 -11.550320648800314 -7.423277166145716 -1.50999574436492 0 0 0
75 1 -10.037124440929844 -8.67186303366092 -0.006729243308831775 0 0 0
62 1 -5.979371306987053 -7.3161087066392945 -1.4583696916538984 0 0 0
60 1 -8.739017375585018 -7.16307138851118 -1.5798806077582845 0 0 0
38 2 -5.966119626190445 -10.082237902244533 -4.735816990395951 0 0 0
187 1 -10.048884143779516 -3.1247307921073038 -3.0367027226703196 0 0 0
178 1 -11.568965623301587 -4.610809944457534 -1.4602497011061808 0 0 0
180 2 -8.605397977403848 -4.527892667308744 -1.3641353570998116 0 0 0
307 2 -9.863044479262463 -0.45757802429066896 -2.962742260151727 0 0 0
186 1 -11.670742740305453 -1.517626268421495 -1.7779423580314315 0 0 0
323 1 -10.047225075324718 -0.14794015433303825 -0.25589822985930233 0 0 0
203 2 -10.279944888131975 -2.8279085418102157 -0.30463492247994706 0 0 0
66 1 -11.44518320007561 -10.24352810444288 1.4999389238116798 0 0 0
68 1 -8.78132445143642 -10.205012019772578 1.5420129817553938 0 0 0
70 1 -6.236093679152992 -10.335958663828636 1.626266321303337 0 0 0
74 1 -11.568660522341156 -7.461556558172851 1.7360401803604888 0 0 0
195 2 -10.164229928859813 -6.168897954253961 0.19236464921198757 0 0 0
76 1 -8.822643233183536 -7.4250164155387335 1.881582920108092 0 0 0
78 2 -6.17740099514382 -7.60726857799494 1.9772633983070815 0 0 0
194 2 -11.576080850557652 -4.457275149969716 1.3490617415490547 0 0 0
197 1 -7.317568323801639 -5.969670316239005 0.26875034162675504 0 0 0
196 1 -8.906514336975043 -4.2923488227014515 1.3791137654796068 0 0 0
219 2 -10.209048985080601 -2.736274887187809 2.8543704695513843 0 0 0
205 1 -7.118087846597098 -3.073272438490548 0.08927242559443183 0 0 0
204 2 -8.5275918488451 -1.4814516247965965 1.2295328547837963 0 0 0
82 1 -11.471903112936202 -10.744710036264934 4.674153486733292 0 0 0
91 2 -10.241157691488617 -8.966365697630563 3.2533567659225655 0 0 0
84 2 -8.832789136317645 -10.749249946389 4.859453641283701 0 0 0
93 1 -7.636764040052201 -9.090178945768898 3.4814911250058835 0 0 0
86 1 -6.236456150717272 -10.56243912970796 4.912111820818652 0 0 0
90 2 -11.873111948737238 -7.256524741410459 4.466702649152504 0 0 0
94 1 -6.226375380425125 -7.2839065383169315 4.762568642435622 0 0 0
92 2 -8.81635321444635 -7.1971587515798845 4.708586158046926 0 0 0
85 1 -7.549637478291818 -11.921075847921763 3.0983760415714463 0 1 0
211 1 -10.315706390001209 -5.657787996176953 3.205491599579691 0 0 0
210 2 -11.761508270737139 -4.012909501947661 4.456274091410238 0 0 0
212 2 -8.848789572179939 -4.120352848109636 4.681080493168277 0 0 0
213 2 -7.5355405002301685 -5.583730782491997 3.005463267032056 0 0 0
218 1 -11.62656248905656 -1.2997220225438428 4.474713639873188 0 0 0
83 2 -10.17845226193106 -11.897352650714549 2.8087582678793224 0 1 0
221 1 -7.463014462684411 -2.79920813202673 3.0635247493451048 0 0 0
220 2 -8.844267797468001 -1.2896801397219702 4.7166345421616995 0 0 0
202 2 -11.795279092422208 -1.3263851237874469 1.1882429797112173 1 0 0
77 2 -7.543308258920374 -8.613923137836728 0.001830597041981787 0 0 0
107 2 -10.40040702635719 -8.886516120783014 6.118501859539642 0 0 0
98 1 -11.648170463335648 -10.570681726728056 7.409736483124785 0 0 0
100 2 -8.947020116548108 -10.585858062516069 7.593694731758996 0 0 0
102 1 -6.241135880052072 -10.540701131503988 7.598777207148969 0 0 0
109 1 -7.654995195839606 -8.912457773867711 6.200089268211458 0 0 0
106 1 -11.821417373189677 -7.341800464146751 7.342546221296989 0 0 0
123 1 -10.306084516858343 -8.769467535927234 8.793687323444905 0 0 0
108 1 -8.940996107360547 -7.0534121741250235 7.441428666568073 0 0 0
110 1 -6.191915041260371 -7.225922924753008 7.600934912509147 0 0 0
125 2 -7.614351426585066 -8.775584537080272 8.918211884801993 0 0 0
243 2 -10.595893400001978 -5.945697226926482 8.975825565769536 0 0 0
228 2 -9.113187032872421 -4.084513363444891 7.600440499217978 0 0 0
245 1 -7.464426147233444 -5.448990377240914 8.993208169674947 0 0 0
229 2 -7.3646170952832755 -5.524541939286355 6.315806772556702 0 0 0
236 1 -8.953613902083951 -1.3504484956109397 7.714027638458862 0 0 0
238 1 -5.970568738496759 -1.3078715281513928 7.837237915763546 0 0 0
237 1 -7.369649476556658 -2.72210484435623 6.220888218618311 0 0 0
114 2 -11.645113804190114 -10.381531838502537 10.096533075236533 0 0 0
116 1 -8.882676656812889 -10.491962427139677 10.206391605667038 0 0 0
118 2 -6.026363088381348 -10.641971431701554 10.312336115922719 0 0 0
254 2 -6.0559658048104295 -1.4496299820514678 10.451209359966843 0 0 0
11 1 -10.341901605830998 -8.842181982054887 11.551576922688657 0 0 0
124 1 -8.896016914150424 -7.193375752459495 10.26313625293013 0 0 0
13 1 -7.421270469223276 -8.81744183804034 11.539093157391129 0 0 0
126 2 -6.049255782930479 -7.08555421674224 10.284663173182947 0 0 0
131 1 -10.44788206393582 -5.879236584908731 11.816405484834506 0 0 0
244 2 -9.20089717592402 -4.178023128972984 10.409628159023178 0 0 0
133 2 -7.562727639357542 -5.688351430735336 11.779198217176516 0 0 0
251 1 -10.561292645327448 -2.68697422655724 9.074625171701387 0 0 0
252 1 -8.944062924765486 -1.4458085582342037 10.566522205800569 0 0 0
141 1 -7.400254221420485 -3.004307505627861 11.90934283583489 0 0 0
253 1 -7.468071590486589 -2.9141490678701776 9.074735340297728 0 0 0
227 2 -10.610978128016871 -5.627682321893584 6.065088591061373 0 0 0
235 1 -10.396903960198392 -2.7575832010153065 6.093535848378055 0 0 0
260 1 -8.853658958603893 1.36498431327829 -10.357995160710447 0 0 0
267 1 -10.34222695193251 2.921144440110718 -11.750560161937385 0 0 0
258 2 -11.61643816731713 1.4819510234801259 -10.295652645254325 0 0 0
414 2 -6.063784036071883 10.58035411336032 -7.8592553901891185 0 0 0
387 2 -10.178380382329694 5.60732441079295 -11.816326967743217 0 0 0
266 1 -11.789677127213935 4.3030786254714455 -10.12137411023041 0 0 0
268 1 -8.699185973604582 4.194400564047635 -10.342378865049868 0 0 0
412 1 -8.726330177257363 10.643186041356957 -7.798886757394584 0 0 0
389 1 -7.323312871053932 5.652010174212794 -11.856281156759332 0 0 0
386 1 -11.648551712653425 7.02100075064391 -10.147023184464238 0 0 0
395 1 -10.339867113677519 8.546344677471488 -11.770854983027268 0 0 0
388 2 -8.719853981673436 7.087153497705563 -10.378240331393847 0 0 0
413 1 -7.388407948126136 8.785692732933757 -9.057214606656736 0 0 0
397 2 -7.4181376613844 8.681074292931768 -11.845735757395765 0 0 0
394 2 -11.492979786014073 10.410452338996151 -10.512869736075151 0 0 0
396 1 -8.848841466903156 10.355038524559513 -10.528216879885505 0 0 0
398 1 -6.0731744917551715 10.386097987058548 -10.566993980547942 0 0 0
283 1 -10.159368840827215 2.802276659033749 -8.776409546007887 0 0 0
274 1 -11.571838662052194 1.3385714858133408 -7.289924925843972 0 0 0
299 2 -10.077553691951275 2.792460887365859 -5.998934603342025 0 0 0
285 2 -7.373211657464717 2.7448554063080026 -8.828116678109522 0 0 0
276 1 -8.783837321768573 1.137566433714581 -7.383825715263389 0 0 0
301 1 -7.257787974277084 2.564390760057059 -6.069321988684773 0 0 0
403 2 -10.072167299625802 5.488006813793097 -8.804055770299687 0 0 0
282 1 -11.598024921032017 4.322422829475861 -7.286237204489891 0 0 0
284 1 -8.648140989020149 4.244456929016756 -7.355855349403591 0 0 0
421 1 -7.158561270092083 5.8786099571256205 -5.992813326626733 0 0 0
405 1 -7.226465544919263 5.740370162196762 -8.855246461467809 0 0 0
411 2 -10.19437398796589 8.803314688692815 -8.911373356679778 0 0 0
402 1 -11.482411223560218 7.170884346241029 -7.39804527988002 0 0 0
404 2 -8.578495839579153 7.362628070022393 -7.502418819930774 0 0 0
427 1 -10.09284212594473 9.024432571994144 -6.113127726051359 0 0 0
410 1 -11.379773640588926 10.611097389013672 -7.739308074008227 0 0 0
35 2 -10.077890417990767 11.78452935837593 -6.04797580965651 0 0 0
429 1 -7.331244412364216 9.113501909169768 -6.196067360660514 0 0 0
269 1 -7.2854853376244675 2.716777355943692 -11.888426876310668 0 0 1
290 2 -11.34609512187141 1.179935666504458 -4.447604451858712 0 0 0
315 1 -9.998574965065622 2.9089955747920397 -3.1299270328389164 0 0 0
292 1 -8.714973165264967 1.1689285520331218 -4.578723485210689 0 0 0
317 1 -7.1084890209186415 2.771353691780931 -3.1419369091093365 0 0 0
298 1 -11.398919529579072 4.424190073695021 -4.563363615244205 0 0 0
435 1 -9.881133024594122 5.850890510117928 -3.135948243685868 0 0 0
419 2 -9.859828045184674 5.7963165659866345 -5.925738418714344 0 0 0
300 1 -8.560333663995475 4.1855552630066 -4.6280081931138195 0 0 0
437 2 -7.2261902368862945 5.753751241678995 -3.2238423400572027 0 0 0
418 2 -11.466049125629358 7.266124529004968 -4.588480799371164 0 0 0
420 2 -8.641615140195645 7.657048943626566 -4.616984268232086 0 0 0
426 2 -11.448597221597183 10.298792665090135 -4.329777396454891 0 0 0
428 1 -8.730119938309146 10.444027421948922 -4.363239687966884 0 0 0
37 2 -7.322190728385488 11.760785286750327 -5.853576296734636 0 0 0
306 1 -11.371722713818345 1.2995742104088692 -1.8067132036278521 0 0 0
331 1 -9.996765413379324 2.7339560030019308 -0.36647544519180014 0 0 0
333 1 -7.104139242396552 2.6290327550729264 -0.3313947136065117 0 0 0
308 1 -8.567021760577395 1.250116510664602 -1.7981024485579797 0 0 0
430 1 -5.993155546498179 10.360197932726205 -4.316026832079734 0 0 0
314 1 -11.431140266894642 4.360704138425138 -1.6818274389516754 0 0 0
451 1 -10.02031594777185 5.680464446941354 -0.08912169017459856 0 0 0
316 1 -8.525920748485012 4.294303565035167 -1.6425992766714324 0 0 0
443 1 -10.080330725336067 8.686629771366391 -2.8722154540443583 0 0 0
434 2 -11.417154914116855 7.026268179589076 -1.6386511558644803 0 0 0
459 1 -10.023099986678844 8.793634997508548 -0.21902819435062143 0 0 0
445 2 -7.430626888609132 8.904538441365041 -2.748815713784865 0 0 0
436 2 -8.552751811883347 7.090533909944603 -1.3303052563066013 0 0 0
461 1 -7.331440783749647 9.046174926407636 -0.0766832025980294 0 0 0
442 2 -11.240417004779056 10.470052048105106 -1.49632293979908 0 0 0
446 2 -6.112718759733091 10.785370709324777 -1.6914600907702186 0 0 0
444 1 -8.75649964174002 10.708647315269383 -1.6262859123518196 0 0 0
339 2 -10.106954601711257 0.05616465088258662 2.7530055780230223 0 0 0
347 1 -10.087266012130435 2.8048191049209468 2.8044841878375877 0 0 0
322 1 -11.480829846675158 1.401005711852571 1.106780446798662 0 0 0
324 1 -8.60451915200268 1.3555635913039017 1.239430256101913 0 0 0
330 2 -11.430511277283872 4.04585769440864 1.0926167102473008 0 0 0
467 1 -10.000856121681812 5.497902561255021 2.631092667783427 0 0 0
332 2 -8.565595217650063 3.9722070135972865 1.1214252241683877 0 0 0
453 1 -7.2334434777839265 5.7018093511999774 0.13257864903842173 0 0 0
469 2 -7.243609028373438 5.733123830330811 2.7065266250005022 0 0 0
450 2 -11.26661421969654 7.166603918304013 1.2567095814859195 0 0 0
452 1 -8.645750865076995 7.381156141051265 1.367586043461672 0 0 0
67 1 -10.101624370949375 11.81409297711667 0.2721745215907605 0 0 0
458 2 -11.445965327438737 10.118896281022069 1.3912757998160226 0 0 0
470 1 -6.032411097367379 6.867486842225886 4.587081964348552 0 0 0
460 1 -8.871826743462691 10.044720897222463 1.78456859443597 0 0 0
69 2 -7.6352773342326365 11.69666536435919 0.3998792836739596 0 0 0
338 2 -11.513036809091794 1.4704264154167843 4.383303143660097 0 0 0
340 1 -8.76383310039551 1.42924265138927 4.578215139418395 0 0 0
341 1 -7.324538485393593 0.00234005906464577 3.0114139840009098 0 0 0
349 1 -7.3325374436099615 2.7981549877542977 2.9835494615473417 0 0 0
346 1 -11.529260134186112 4.243009678602641 4.392947721092561 0 0 0
350 1 -6.026789189212742 4.312822757997842 4.567233049460998 0 0 0
348 2 -8.807401707966239 4.166654362304386 4.486914706603765 0 0 0
475 2 -10.030275022975202 8.336137614090385 3.203390764796844 0 0 0
466 1 -11.455488456636047 6.834635403317216 4.345441258564395 0 0 0
491 1 -10.136683968985261 8.426637194587475 5.842958357596773 0 0 0
477 1 -7.373820779067268 8.469687832277545 3.2500912644706252 0 0 0
468 1 -8.657081445187265 6.684781824798236 4.505895512214463 0 0 0
474 1 -11.239076199248625 10.278182826658968 4.2782306523146705 0 0 0
462 1 -6.070157437867921 10.223377684780372 1.8446083550846875 0 0 0
478 1 -6.116140599092882 10.277817387487268 4.612905224060687 0 0 0
476 2 -8.680173434775584 10.158941592602869 4.482951906154688 0 0 0
356 1 -9.076323361913923 1.5403074980281064 7.821107456833848 0 0 0
355 1 -10.333561596330956 0.1272105928356179 6.140309843465808 0 0 0
363 1 -10.267850661209158 2.8604857852279357 6.05962235837675 0 0 0
354 2 -11.79111440196447 1.4832879784330089 7.584216346595317 0 0 0
357 2 -7.462599092823216 0.1149620353228154 6.386346138135333 0 0 0
365 1 -7.434141228237217 2.8821571403102504 6.297778766841879 0 0 0
364 2 -9.12190838611474 4.1858071970129185 7.935487094433397 0 0 0
483 1 -10.19625111580103 5.5502915638420225 6.1316142600809 0 0 0
485 2 -7.425444807687461 5.613130518795222 6.356657357300329 0 0 0
484 1 -8.955381135359755 7.037389373099126 7.7939978316929395 0 0 0
482 1 -11.753171337615772 7.025997758584988 7.451899077857853 0 0 0
493 1 -7.529022743107329 8.468628791078926 6.0561378637308145 0 0 0
490 1 -11.666349064610403 9.690386912863694 7.656514915520326 0 0 0
492 2 -9.088637458962609 9.696818558671882 7.698832912482998 0 0 0
99 2 -10.42784588299306 11.392746919257524 6.280518393177257 0 0 0
115 1 -10.333748929710058 11.633308904410283 8.928694591845739 0 0 0
101 1 -7.618987262470375 11.434534300019017 6.334938165305677 0 0 0
371 1 -10.55405264902592 0.015438569681068205 9.171632805596358 0 0 0
379 1 -10.676707652604936 2.8915640601134736 9.312559491377442 0 0 0
372 2 -9.150445034872119 1.4157571453508881 10.631896355464992 0 0 0
373 1 -7.526507793616307 0.12893522977352714 9.190941433732382 0 0 0
381 2 -7.272450318582116 2.7143687676581374 9.236685697290756 0 0 0
362 1 -11.863626518642786 4.234699255317468 7.4520132320334485 1 0 0
499 1 -10.626000381968614 5.570445230107554 9.264930197712152 0 0 0
501 2 -7.30020581053838 5.655581592290121 9.259031651689574 0 0 0
380 1 -8.79590314306649 4.186421681478457 10.538723051121197 0 0 0
507 2 -10.63406646718158 8.120767524854172 9.359871710017359 0 0 0
500 1 -8.818696712032882 7.108848045442437 10.55499394386488 0 0 0
509 2 -7.3937948277693115 8.519257139443694 9.128633098260162 0 0 0
506 2 -11.661035295445076 10.16673505588665 10.498171128044854 0 0 0
3 1 -10.35042428179057 11.890285052867588 11.712412489611406 0 0 0
508 1 -8.957466395844557 10.011114730189574 10.459225986350411 0 0 0
5 2 -7.628062235393296 11.771470552792188 11.7309747060954 0 0 0
117 2 -7.546452132950471 11.498885084011578 8.936615401701252 0 0 0
510 1 -6.134485218838422 10.126486717353021 10.462278923430938 0 0 0
494 2 -5.972429076694004 9.843578250470031 7.3939966766221685 0 0 0
23 1 -4.619175360758237 -11.834712890160928 -9.230857428734872 0 0 0
8 2 -3.3514198088040694 -10.378352143910284 -10.850286748774753 0 0 0
31 2 -4.77015030307984 -8.960269434737123 -9.155388469511852 0 0 0
529 2 -1.7883415385271013 -11.897573769239136 -9.316707264167743 0 0 0
160 1 -2.7322014633875873 -1.741348742315533 -7.66232711295504 0 0 0
16 1 -3.100552034424263 -7.829577531282567 -10.77098905587316 0 0 0
537 2 -1.5599967045856262 -9.12286295634041 -9.31666846634157 0 0 0
657 2 -1.6413221895733896 -6.287812021504629 -9.50164173040039 0 0 0
151 1 -4.361254447714989 -6.076229211601221 -9.391515978437289 0 0 0
136 2 -2.815021835982069 -4.439680501067831 -10.844519171709766 0 0 0
665 2 -1.3063307828843749 -3.367418422982429 -9.077915795656027 0 0 0
159 1 -4.243158061616415 -3.0889251723382167 -9.268747932842766 0 0 0
279 1 -4.163390199184786 -0.1887375609058545 -9.120221946319905 0 0 0
785 2 -1.2959005898621263 -0.16330085012239154 -8.967786922428875 0 0 0
144 1 -2.470700798884574 -1.6121744332880745 -10.5719691297784 0 0 0
24 1 -3.135709291266784 -10.468678742574992 -7.720700485352877 0 0 0
530 2 -0.021710429697619264 -10.510658777155244 -7.686987148991437 0 0 0
32 1 -2.9688945106266096 -7.58765204571239 -7.8935462946924195 0 0 0
47 1 -4.582513579620497 -8.84036245804309 -6.384967516966851 0 0 0
538 2 -0.006326704485271991 -7.643789914144373 -7.688612973945469 0 0 0
553 2 -1.8283557987385206 -9.027664367213111 -6.250402158512766 0 0 0
673 2 -1.7134805788601186 -6.1027080136953975 -6.215304464851925 0 0 0
167 1 -4.40701102015232 -6.070665194638685 -6.308602929035616 0 0 0
150 2 -5.669157087514923 -4.599299868761948 -7.867244786555024 0 0 0
152 1 -2.832182782392782 -4.7710779263115315 -7.847284246945654 0 0 0
175 2 -4.1580424019299995 -3.2631744124475452 -6.2651247231070855 0 0 0
681 1 -1.3585457431119494 -3.3722419722738324 -6.221898594778867 0 0 0
158 1 -5.735031091947614 -1.6562042501508518 -7.6386698295195465 0 0 0
295 2 -4.2155538114021285 -0.31730454379585654 -6.254527402618097 0 0 0
801 2 -1.3498180497994894 -0.46536901173936496 -6.052241380617858 0 0 0
134 2 -5.733771691467802 -4.483225486216213 -10.741332086554195 0 0 0
142 2 -5.878909983112467 -1.608057884183497 -10.463791804459197 0 0 0
30 1 -5.959828832659751 -7.303471003950742 -7.858631878729199 0 0 0
39 1 -4.693895750835902 -11.911159819363442 -6.053169496140651 0 1 0
263 2 -4.075412169900369 -0.19494213783370276 -11.894369381394924 0 0 1
40 1 -3.2900761006388524 -10.270281795557075 -4.685219021051364 0 0 0
55 1 -4.746593921591972 -11.576784609781791 -3.1075113333963165 0 0 0
817 2 -1.4928448878798013 -0.4284032028636951 -2.9773892106369626 0 0 0
546 2 -0.3842327127013896 -10.370599614528047 -4.434227666816588 0 0 0
561 1 -1.867095267021197 -11.686785687784662 -2.9483720161214575 0 0 0
48 2 -3.2362162058696535 -7.555843629911068 -4.64180023051279 0 0 0
554 1 -0.42517766546052743 -7.760020990371569 -4.410677728919944 0 0 0
166 1 -5.737355475436247 -4.503748820233298 -4.72410913464121 0 0 0
168 1 -3.018872672411363 -4.689566191020458 -4.527493481226415 0 0 0
183 2 -4.612873955176181 -6.052091045905191 -3.034734134723852 0 0 0
674 2 -0.22996758523233646 -4.920759660232466 -4.388944758269589 0 0 0
311 2 -4.283181780869111 -0.42990526240959687 -3.263670854869766 0 0 0
174 1 -5.666503906037872 -1.8091501745498748 -4.759414169392827 0 0 0
682 2 -0.053840995155961024 -2.031243962068948 -4.301559769558665 0 0 0
176 1 -2.865674289777256 -1.892987025780155 -4.59051741894577 0 0 0
192 1 -2.92736531335571 -1.6862699973723034 -1.4107351787815894 0 0 0
56 1 -3.4284697073941146 -10.41094353001031 -1.1781061264488029 0 0 0
562 2 -0.4195395322812821 -10.420591768300559 -1.1363623717905802 0 0 0
569 2 -2.116007371275206 -9.127032044805905 -2.8130017602129214 0 0 0
63 1 -4.670117990002943 -8.87300998819214 -2.955057007503578 0 0 0
64 1 -3.266696840430653 -7.470903410353871 -1.2685158017497054 0 0 0
570 2 -0.3506062758732461 -7.691994413486728 -1.2520176758475223 0 0 0
689 2 -1.7969679430346135 -6.231083772798081 -2.7948844816634675 0 0 0
191 2 -4.416978415811922 -3.248853403842833 -2.8657492627600973 0 0 0
182 1 -5.900602374734655 -4.5897028740845185 -1.4452759179380767 0 0 0
184 1 -3.111365465734904 -4.7636009665949794 -1.2981700678582144 0 0 0
697 2 -1.6966080885865795 -3.3831909022161386 -2.746794740293292 0 0 0
690 1 -0.3413653326118723 -4.872000598253042 -1.1468681812180905 0 0 0
190 1 -5.751553802985932 -1.6878351509456526 -1.6125519928809589 0 0 0
698 1 -0.17487386520948983 -1.8465225043511433 -1.2769915199166346 0 0 0
46 1 -5.95405998825004 -7.421104066694138 -4.6825503226028955 0 0 0
72 1 -3.4075519656399353 -10.48751524134782 1.8017934053398217 0 0 0
585 2 -2.106578794874009 -9.02740378469121 0.3930971336007945 0 0 0
578 1 -0.19228775496808947 -10.478891037136012 1.7717782602084657 0 0 0
80 1 -3.3531291211990815 -7.482852286961215 1.8764640138505868 0 0 0
79 1 -4.77467289155558 -8.763239582761392 0.2652600619156682 0 0 0
586 2 -0.18278773288301592 -7.785002711676892 1.8228083724971769 0 0 0
705 2 -1.8791134776394254 -6.231213502008829 0.3617934567132178 0 0 0
198 1 -5.863455848684765 -4.402845597799447 1.7732230165629532 0 0 0
200 1 -3.1655642045634975 -4.686910214665401 1.7330522849807917 0 0 0
199 2 -4.763017157452218 -5.988421335623828 0.2681358376665804 0 0 0
207 1 -4.441455717265319 -3.090972141552468 0.10069521003751002 0 0 0
713 2 -1.7039473833933847 -3.350728601956939 0.259571637542242 0 0 0
706 1 -0.06770546147411649 -5.012099582384992 1.6938034965322626 0 0 0
223 2 -4.366927156015591 -2.812231763602655 2.908426758065124 0 0 0
206 1 -5.854461718889578 -1.4881478645842594 1.5389637110757741 0 0 0
327 2 -4.404251313310765 -0.2339764166015841 0.03137175533225797 0 0 0
714 2 -0.19254180965213208 -1.6774125132710163 1.5941207527210841 0 0 0
208 1 -2.8689649705973816 -1.5512396653417173 1.5137942988271982 0 0 0
95 1 -4.833177068117073 -9.073290959042446 3.3647892282494594 0 0 0
88 1 -3.4265831034051706 -10.548230493808648 4.752802392452373 0 0 0
87 2 -4.972022391779366 -11.823094484996242 3.271279087078905 0 0 0
594 2 -0.12696442452125625 -10.529441079293887 4.565583702852377 0 0 0
601 2 -2.015932127624821 -9.057490563618337 3.323393274482174 0 0 0
96 1 -3.2943799291895384 -7.523880751064153 4.704342381392077 0 0 0
602 1 -0.08483006310004432 -7.740656788730853 4.572452566494157 0 0 0
721 2 -1.8274221167552351 -6.127755485349272 3.2629691504695297 0 0 0
215 2 -4.701609586411835 -5.995956178731104 3.318743389571318 0 0 0
214 1 -5.9349982039615785 -4.280214136502592 4.6651192174092 0 0 0
216 2 -3.255754970840756 -4.339978852419065 4.742231672361258 0 0 0
745 2 -1.2899533949848245 -3.082317097707845 5.9389519246536535 0 0 0
729 1 -1.4486447786556924 -3.3086110036723326 3.2071723339833573 0 0 0
222 2 -5.923019128266082 -1.4275933110207621 4.472243589511837 0 0 0
224 1 -2.9464708470132326 -1.5702401711689635 4.610443487322545 0 0 0
593 2 -1.9936509749276101 -11.89469237268634 3.212380444242146 0 1 0
577 2 -1.9986601120680034 -11.852768520954342 0.40099857627241553 0 1 0
104 1 -3.418755417741043 -10.518686713330172 7.4913321662337164 0 0 0
256 1 -2.479989836389346 -1.4148168832751218 10.445317487544935 0 0 0
359 1 -4.413916074481956 -0.00640307902543692 6.12596550081576 0 0 0
617 1 -1.7249231978075013 -9.154038209164849 6.095790227118888 0 0 0
633 2 -1.6519381904066561 -9.24393460118704 8.739180792609107 0 0 0
255 1 -4.187238231843603 -2.797570623326683 9.031804117496838 0 0 0
127 1 -4.899368494361078 -8.933996098609358 8.958941226981128 0 0 0
112 1 -3.206430125484013 -7.657664453232608 7.5734758010632675 0 0 0
231 2 -4.577386450451584 -6.067872883635572 6.281489840924452 0 0 0
111 1 -4.866978602897749 -8.86767478907889 6.168910641451843 0 0 0
753 2 -1.737292082895392 -6.170656613396843 8.863994061604693 0 0 0
737 2 -1.7181408524907087 -6.344142240763919 6.1110219435192565 0 0 0
232 1 -2.908393429059295 -4.366659631723996 7.397240529838094 0 0 0
247 1 -4.36640033662385 -5.853565052708239 8.964191328754412 0 0 0
230 1 -5.725113800407022 -4.253169603377959 7.591996667840186 0 0 0
761 2 -1.319612893183086 -2.9684942668498393 8.839741256883222 0 0 0
239 2 -4.582972367385842 -2.589601079487954 6.350302543783655 0 0 0
240 1 -2.6591595893678477 -1.4498732323669712 7.442999925404108 0 0 0
120 1 -3.2350296659117705 -10.52830231739805 10.25478862314567 0 0 0
143 1 -4.298300048640392 -2.8076085891990537 11.82455029001061 0 0 0
626 1 -0.05982318853929158 -10.733248470464828 10.172760567397011 0 0 0
128 2 -3.20879123975434 -7.745612970489822 10.295988216028277 0 0 0
15 1 -4.824313188329152 -8.937733156568898 11.61808979221589 0 0 0
641 1 -1.5953807749784927 -6.289734431091015 11.628112221941377 0 0 0
521 2 -1.4509313058892803 -9.125910687921179 11.575073108271567 0 0 0
135 1 -4.313198797851689 -5.976980647868434 11.722774888298689 0 0 0
248 1 -2.7850658003628537 -4.3379350932905325 10.367439628992868 0 0 0
246 1 -5.711819640156754 -4.281343703064146 10.38717568151589 0 0 0
649 2 -1.0382157813540216 -3.007293437825761 11.783401461966886 0 0 0
375 2 -4.103466631956257 -0.1731255992725164 9.04895062230447 0 0 0
271 1 -4.237095480873541 2.8545590859393677 -11.802239670312005 0 0 0
287 2 -4.257694469971536 2.876973494712055 -8.898186439962043 0 0 0
264 2 -2.6757626798785936 1.4747712763976517 -10.377068101290229 0 0 0
777 2 -1.2595773142354896 3.030809982229786 -11.809573967417766 0 0 0
391 2 -4.359168528074142 5.851626017376832 -11.80142578484214 0 0 0
407 1 -4.3955088919668865 5.886249278747019 -8.90495739953985 0 0 0
897 2 -1.4235990464463437 5.965473655220584 -11.730345196114154 0 0 0
272 1 -2.785951497087569 4.434688898961636 -10.321374122329026 0 0 0
390 1 -5.919848841763808 7.225694981705347 -10.443278602295315 0 0 0
415 2 -4.582000323229421 8.809970012460818 -9.147034846264658 0 0 0
399 1 -4.550270437455407 8.770753846098916 -11.918321795885461 0 0 0
392 1 -2.938818762900326 7.421650957309266 -10.431299604590208 0 0 0
400 1 -3.1085364220303835 10.36537860925687 -10.567531758354592 0 0 0
921 2 -1.674346934951763 9.081244122412416 -9.12014922387059 0 0 0
906 1 -0.017784879395667193 10.439191820283721 -10.603850585830877 0 0 0
278 1 -5.731593810023632 1.2142670972419487 -7.586653137886855 0 0 0
303 2 -4.168590957982304 2.6397753693778316 -6.012979811457551 0 0 0
270 2 -5.855253183542682 4.311507209646886 -10.412137593222267 0 0 0
793 2 -1.2274601301939392 2.949904960004417 -8.686053095745242 0 0 0
280 1 -2.7458277005745804 1.3197556878522654 -7.491014349404915 0 0 0
423 2 -4.365662299329742 5.976924016751078 -6.211373651522838 0 0 0
286 1 -5.751356018205224 4.188179232591072 -7.427894116288593 0 0 0
288 1 -2.9094191032870707 4.383904486863336 -7.433180363489465 0 0 0
913 2 -1.6861316552113692 6.085362082511218 -8.86316432691327 0 0 0
794 2 -0.060990815171030485 4.748986622041743 -7.268473814504207 0 0 0
406 1 -5.822479937196519 7.4700108645001615 -7.495303002798822 0 0 0