LAMMPS data file via write_data, version 2 Aug 2023, timestep = 10000, units = metal

1024 atoms
2 atom types

-12.099318594904314 12.099318594904314 xlo xhi
-12.099318594904314 12.099318594904314 ylo yhi
-12.099318594904314 12.099318594904314 zlo zhi

Masses

1 55.847
2 26.982

Atoms # atomic

2 1 -10.350566870776097 -10.303851213179174 -10.72263740688303 0 0 0
17 1 -11.749807912784487 -11.863053803796282 -9.327136394793694 0 0 0
19 1 -9.082085318709144 -11.793734141013958 -9.261877742717438 0 0 0
4 1 -7.661411451874891 -10.302966114530342 -10.676913103854234 0 0 0
21 1 -6.41137830715753 -11.836013444891138 -9.173275914259706 0 0 0
6 1 -4.976941367434183 -10.406975457462028 -10.59283574495795 0 0 0
8 1 -2.168232463731094 -10.587641260327604 -10.448763940385888 0 0 0
521 2 -0.801847324386824 -9.210615841558612 -11.863459064969215 0 0 0
10 1 -10.382920688166102 -7.469998693648326 -10.592807592719518 0 0 0
25 1 -11.824974896608737 -8.918048903492869 -9.144965358990707 0 0 0
133 2 -6.182555330599196 -6.127852977215005 -11.862654374231726 0 0 0
12 1 -7.654602077178936 -7.5122387302313 -10.472673357259882 0 0 0
13 1 -6.2392915233469175 -8.835103479751869 -12.082112839696142 0 0 0
14 1 -4.851380765932416 -7.591755547420928 -10.411161698343259 0 0 0
135 1 -3.424529218842698 -6.174943382571537 -11.871566096236142 0 0 0
15 1 -3.5162117263816772 -9.029211477580379 -12.016544175166965 0 0 0
16 1 -2.092040235895115 -7.676657961617916 -10.381378732355595 0 0 0
641 2 -0.7294902411220654 -6.303522059549076 -11.77593097207236 0 0 0
18 1 -10.454179893951313 -10.494960123983722 -7.548756755447775 0 0 0
20 1 -7.791258016977517 -10.57260901422404 -7.512922667633921 0 0 0
23 1 -3.7113913451293126 -11.948864204500891 -9.056250797502509 0 0 0
31 1 -3.6187136956321013 -9.099657980574973 -8.940130993547095 0 0 0
22 1 -5.081706211225572 -10.524405904131397 -7.496957057817383 0 0 0
537 2 -0.8844162498657524 -9.188797468161571 -8.90460011497477 0 0 0
24 1 -2.285535757118775 -10.583005353701763 -7.468944409398446 0 0 0
26 1 -10.438183808867803 -7.30576694914736 -7.746937710012116 0 0 0
41 1 -11.816575179914869 -8.730490230887144 -6.232376750008115 0 0 0
29 1 -6.361363247662514 -9.034760408389017 -8.979127773662483 0 0 0
27 1 -9.068126839037413 -9.003608239833968 -9.021014834196814 0 0 0
43 1 -9.061127401987662 -8.735954759845052 -6.294871450575272 0 0 0
45 1 -6.452607772202962 -8.792984458691484 -6.23698279832308 0 0 0
28 2 -7.688490512769597 -7.250017197611307 -7.781528134031624 0 0 0
30 1 -4.947878722764969 -7.409511049954339 -7.620583029502751 0 0 0
47 1 -3.6920031246888287 -8.944187800438588 -6.115795517288187 0 0 0
657 2 -0.7764148126566275 -6.16708275982651 -8.891645937511651 0 0 0
32 1 -2.157345007020303 -7.578480104872206 -7.498701632813914 0 0 0
7 1 -3.6402781003235316 -12.086816898255499 -11.921243963357359 0 1 0
34 1 -10.385030872244208 -10.202267170848252 -4.813999881667442 0 0 0
49 1 -11.665454441807134 -11.703628930827012 -3.133686632604228 0 0 0
51 1 -9.10032032529458 -11.679899057650477 -3.284559529257819 0 0 0
36 1 -7.790149532254516 -10.226620815841162 -4.787280019211083 0 0 0
53 1 -6.494313523361539 -11.724923840897542 -3.2967706121193237 0 0 0
37 1 -6.5012735785261775 -12.049186672638427 -6.002239509293259 0 0 0
55 1 -3.8757146973346925 -11.873630747919481 -3.2149515598327603 0 0 0
38 1 -5.135902104342411 -10.330511365568867 -4.779290757208706 0 0 0
39 1 -3.8168146649710772 -12.03675113602634 -6.01563728498942 0 0 0
40 1 -2.3652360533234016 -10.502739350190962 -4.578505401786135 0 0 0
553 2 -0.9697127540398383 -9.11766745229448 -5.978247185309856 0 0 0
569 2 -1.0603571660078601 -9.090527627660556 -3.061911401736282 0 0 0
561 2 -1.1460696535118284 -12.017690024351449 -3.0567215404898707 0 0 0
42 1 -10.375444949860027 -7.436375355300608 -4.537166132530265 0 0 0
44 1 -7.74239665600595 -7.481454808062461 -4.484503073842521 0 0 0
61 1 -6.3983809338991415 -9.008309862045959 -3.015635352966993 0 0 0
63 1 -3.810862595798346 -9.022348284281206 -3.0718215148915773 0 0 0
46 1 -5.0364619530854835 -7.493880125606488 -4.581052265930531 0 0 0
48 1 -2.2517586683808823 -7.560575921253335 -4.5500418069157815 0 0 0
673 2 -0.8361235194569037 -6.128013805578634 -5.9774943783277985 0 0 0
689 2 -0.8928811600873305 -6.107780264667223 -3.0672928785440536 0 0 0
50 1 -10.32927164830262 -10.482913758635993 -1.301325822778139 0 0 0
52 1 -7.758153637695997 -10.558529382542476 -1.407607644837706 0 0 0
54 2 -5.144083341365839 -10.598468302048376 -1.4516306251726103 0 0 0
56 1 -2.45406677947256 -10.534442230133623 -1.5858564761436926 0 0 0
585 2 -1.086212883641546 -9.082965666688304 -0.14944562339593334 0 0 0
577 2 -1.1907920941647536 -12.003702091922005 -0.13584161847372384 0 0 0
57 1 -11.72994168783789 -8.961604861856376 -2.942024942685585 0 0 0
58 1 -10.292180480985849 -7.30334856181398 -1.619287411177096 0 0 0
59 1 -9.064024611456682 -9.019996856696839 -2.957308480267045 0 0 0
75 1 -8.982328301121479 -8.726783060699864 -0.13455067491139358 0 0 0
60 1 -7.7015986861603265 -7.2691720665542805 -1.7292589791826367 0 0 0
77 1 -6.388695853681045 -8.739932329044459 -0.26575497920316626 0 0 0
79 1 -3.7864161827097242 -8.862465651221477 -0.2169887751285578 0 0 0
62 1 -5.035291515017718 -7.2856541859005635 -1.7264584731836512 0 0 0
64 1 -2.2896037689482904 -7.51613296403125 -1.6430658403987508 0 0 0
705 2 -0.9598936322139844 -6.12401914861827 -0.13687205099667907 0 0 0
35 1 -9.118384118468093 -12.079186353825502 -5.9821617353439995 0 1 0
545 2 -1.0809796092702788 -12.071466558780973 -5.978231522682069 0 1 0
71 1 -3.8776738855181287 -12.069694815273248 -0.010840766723806912 0 1 0
66 1 -10.278476125268451 -10.252096605721704 1.4594300592506253 0 0 0
65 1 -11.601469822909905 -12.053654955302584 0.23454579548628735 0 0 0
68 1 -7.674159764598077 -10.21635222313695 1.3114377076785029 0 0 0
83 2 -8.962852209276342 -11.725584158699553 2.876017588776684 0 0 0
85 1 -6.402068789765364 -11.734879245337606 2.7976189936052256 0 0 0
70 1 -5.123291612573729 -10.276317347010128 1.259395868316497 0 0 0
87 1 -3.865405629871364 -11.839043977578706 2.752885927070783 0 0 0
95 1 -3.7469433103434038 -9.057706988632036 2.9854817903021926 0 0 0
72 1 -2.407718099638484 -10.461510908534132 1.329642083502685 0 0 0
601 2 -1.0605515918820745 -9.093111921814419 2.835172521253395 0 0 0
593 2 -1.1496054337666406 -11.990712828243035 2.7790226630268218 0 0 0
74 1 -10.149335024609488 -7.492718320190839 1.75851052221983 0 0 0
73 1 -11.696991555621183 -8.755198662125965 0.13163129476109503 0 0 0
76 1 -7.5757276908302025 -7.557902542751958 1.6598218841614238 0 0 0
78 1 -5.012000014929317 -7.549012328987229 1.515046089277683 0 0 0
80 1 -2.3024537592929035 -7.563493283124625 1.3851830405738732 0 0 0
721 2 -0.9885941019541276 -6.109191034185328 2.820687608278023 0 0 0
81 1 -11.60496253770197 -11.80188796702056 3.094485446675349 0 0 0
82 1 -10.204821792121246 -10.509021534657261 4.747565017902377 0 0 0
93 1 -6.287768059904454 -9.083672351947351 3.1735667038388424 0 0 0
84 1 -7.585127905743011 -10.601818030664244 4.764427784780295 0 0 0
86 1 -4.99595536152693 -10.610554805895855 4.661769124571997 0 0 0
88 1 -2.3531214469286206 -10.559321356909855 4.328379293303527 0 0 0
617 2 -1.0757485610170832 -9.131324228941136 5.775911951110281 0 0 0
609 2 -1.1893631851477229 -12.027268846971953 5.737953474104857 0 0 0
89 1 -11.594253007557159 -8.909228323964879 3.2100804966720173 0 0 0
90 1 -10.158972915129121 -7.377456031274831 4.6118885652819674 0 0 0
91 1 -8.876241681929606 -9.049013660426048 3.242119139018566 0 0 0
109 1 -6.1993296458236 -8.895685284484179 6.0330401682600145 0 0 0
107 1 -8.847393504054274 -8.851826571008537 6.0305482101034 0 0 0
92 1 -7.488928446110367 -7.370612634269439 4.504145612774756 0 0 0
94 1 -4.895779755341842 -7.409386446357725 4.473803303011157 0 0 0
111 1 -3.577087526044461 -9.007412852390294 5.9843406791498746 0 0 0
96 1 -2.2596120938434496 -7.534899080971579 4.365353010490596 0 0 0
737 2 -0.9250883708643921 -6.228009302198035 5.902789263054668 0 0 0
98 1 -10.209830712155227 -10.326307392958126 7.488393804079245 0 0 0
97 1 -11.606050342779602 -11.94957766642248 6.18282698893174 0 0 0
113 1 -11.624440704818678 -11.8623209303783 9.041473284857167 0 0 0
100 1 -7.550176895579881 -10.317916736765506 7.540501572907212 0 0 0
115 1 -8.912800449587115 -11.79154881276722 8.984907111395026 0 0 0
117 1 -6.267704168125343 -11.850755062118484 8.98518846251261 0 0 0
102 1 -4.875491468578298 -10.410430686106547 7.558645470375938 0 0 0
104 1 -2.1372934386089 -10.559596538754631 7.615833849231157 0 0 0
106 1 -10.18579610724596 -7.59531493821327 7.734912824414774 0 0 0
105 1 -11.612788760320436 -8.855681405032117 6.080109366907675 0 0 0
108 1 -7.544820570416645 -7.665282051794953 7.858540953733872 0 0 0
227 1 -8.795509496574796 -6.133943855161482 6.329921107930911 0 0 0
229 2 -6.189127218648111 -6.277945556950105 6.452496242171204 0 0 0
110 1 -4.7555132903188895 -7.705897992548742 7.823584124769126 0 0 0
231 1 -3.437503050129789 -6.235068355294588 6.282504902648707 0 0 0
112 1 -2.021376185832374 -7.7177513692710376 7.7027620684744935 0 0 0
114 2 -10.175723001584677 -10.641067980681719 10.7917318161803 0 0 0
1 1 -11.767480658263333 -11.947429312961232 12.087375546545106 0 0 0
116 1 -7.5484268434107165 -10.597380162600437 10.807837655173453 0 0 0
123 1 -8.952165620006038 -9.092441429441456 9.312902497161149 0 0 0
125 1 -6.194994757506491 -9.11147216913648 9.311991231046745 0 0 0
119 1 -3.599984690014852 -11.931602554415983 9.163788133957794 0 0 0
127 1 -3.461304964619713 -9.157828266698756 9.303356073467244 0 0 0
118 1 -4.945106970503331 -10.590296506259119 10.81104403122486 0 0 0
633 2 -0.6973015726482886 -9.178622671478609 9.268445878234429 0 0 0
120 1 -2.102387106632345 -10.624306655606361 10.783707240406732 0 0 0
625 2 -0.7706037968329263 -12.06431827460833 9.268097145749815 0 0 0
9 1 -11.745054540767077 -8.907380327347793 11.9753573003897 0 0 0
121 1 -11.624421153533813 -8.986967103696605 9.16900643455295 0 0 0
122 1 -10.262262667810598 -7.319725362067483 10.568912538867307 0 0 0
124 1 -7.525866156634454 -7.388840038306042 10.582982262398511 0 0 0
11 1 -8.971441872612195 -8.822520100679846 12.025963830053582 0 0 0
126 1 -4.781285485456191 -7.475549872091146 10.630003020183155 0 0 0
753 2 -0.6247046156777034 -6.216186455850865 9.190372677646998 0 0 0
128 1 -1.9863399307816731 -7.618884853116662 10.740644779829502 0 0 0
247 1 -3.3483413325145692 -6.050342508422729 9.157199686350694 0 0 0
99 1 -8.877493328299927 -12.091958172665441 6.319102327002246 0 1 0
103 1 -3.674276581118178 -12.091358066496465 6.141636008477658 0 1 0
130 1 -10.371729428075609 -4.433552391758695 -10.654977249577936 0 0 0
145 1 -11.874826624321866 -5.915197248979259 -9.20331960567001 0 0 0
131 1 -8.93382324397469 -6.008840350054179 -11.99316385921344 0 0 0
132 1 -7.566238840839694 -4.432162345334241 -10.595691978463575 0 0 0
147 1 -9.066225701948234 -5.844326482841485 -9.191346426247096 0 0 0
149 1 -6.209789562400038 -5.887601534300238 -9.129037193039267 0 0 0
134 1 -4.750501774807259 -4.474219722998806 -10.551692419708452 0 0 0
136 1 -1.9301926425100377 -4.587573393889075 -10.46590710969679 0 0 0
138 1 -10.328893859741013 -1.556188544583121 -10.58327574629436 0 0 0
153 1 -11.856612928565736 -2.9935294770208345 -9.175162024718444 0 0 0
273 1 -11.800776656969687 -0.020348891684068088 -9.18407586641001 0 0 0
140 1 -7.548843274558601 -1.5991939039907341 -10.486591015412275 0 0 0
259 1 -8.877829662966152 -0.13414741131691038 -11.9814624509847 0 0 0
261 1 -6.108539552454596 -0.17935914497813635 -11.867822135165012 0 0 0
155 1 -9.024387752737494 -3.030183442431038 -9.07407201013361 0 0 0
141 1 -6.09597581950796 -2.9809420758145584 -12.025191726501028 0 0 0
275 1 -8.976122704436099 -0.04496647569557678 -9.116475954993033 0 0 0
139 1 -8.890219819749255 -2.9960064008151757 -12.069919354284837 0 0 0
142 1 -4.755702951946585 -1.6518302483872682 -10.413462669340534 0 0 0
263 1 -3.409290809700737 -0.16712745997706352 -11.814835953245206 0 0 0
143 1 -3.317190293852086 -3.0388956538848535 -11.999969611782975 0 0 0
649 2 -0.5559869108883829 -3.0202509820314023 -11.868718881535177 0 0 0
144 1 -1.9432260489728064 -1.6225699606145108 -10.36983281829995 0 0 0
146 1 -10.458873302251186 -4.467120561150692 -7.616435455911156 0 0 0
161 1 -11.877362764455741 -5.931432007522454 -6.1553046957663895 0 0 0
148 1 -7.6665450192870574 -4.499573454668077 -7.586725379947771 0 0 0
163 1 -9.064200248301864 -5.972131170269006 -6.085184360057955 0 0 0
165 1 -6.344095037184496 -5.991759224496245 -6.053682131089899 0 0 0
157 1 -6.21630900055579 -3.0932762859135883 -9.029241743273039 0 0 0
151 1 -3.4740425172820233 -5.997857121723828 -9.017878898931126 0 0 0
150 1 -4.856556857833155 -4.531352616857431 -7.520025194329983 0 0 0
159 1 -3.391463280387645 -3.1132657084624173 -8.962188348440439 0 0 0
152 1 -2.0207104022634823 -4.573441184843721 -7.475593580968095 0 0 0
665 2 -0.5915421513179416 -3.122860080586596 -8.953440156851292 0 0 0
169 1 -11.880400678681962 -2.9356118372754962 -6.177040785869931 0 0 0
289 1 -11.823770202159361 -0.03621811218520634 -6.159216320032234 0 0 0
154 1 -10.42576287328508 -1.5027686705822287 -7.668618955241002 0 0 0
173 1 -6.28435437515317 -3.0024912345052046 -6.149340175207875 0 0 0
171 1 -9.055496060283486 -2.954789125905996 -6.191220820976202 0 0 0
156 1 -7.627240206245528 -1.527973790289149 -7.647792823079464 0 0 0
291 1 -9.01897444281959 -0.12286196046093704 -6.102021333434233 0 0 0
293 1 -6.2894764774451435 -0.15591467418201008 -6.063664056143724 0 0 0
158 1 -4.879824754308365 -1.5999428472379698 -7.606878989157332 0 0 0
175 1 -3.4845447772853295 -3.022439161919876 -6.060092134705849 0 0 0
160 1 -2.0233334369488336 -1.5642115290219418 -7.484821262931692 0 0 0
277 1 -6.201507738563969 -0.029711779051877375 -9.060167886868387 0 0 0
279 1 -3.5066028826108933 -0.030291574797312395 -8.968768311063032 0 0 0
162 1 -10.40349340554639 -4.394142043240611 -4.7028454638227055 0 0 0
164 1 -7.687411837271325 -4.399033671709709 -4.705887007820581 0 0 0
179 1 -9.041664676407684 -5.7974213161579415 -3.1918958123679255 0 0 0
181 1 -6.350512337556814 -5.847090989826352 -3.220967561378615 0 0 0
187 1 -8.992871599597386 -3.0416829456731302 -3.0645448815822385 0 0 0
189 1 -6.310744176726775 -3.0832683391148117 -3.0608932684287558 0 0 0
166 1 -4.916593739645104 -4.451051266590395 -4.650303730514948 0 0 0
183 1 -3.615905879497164 -5.950958850075878 -3.164366287577929 0 0 0
167 1 -3.5727651415348745 -6.036307049477194 -6.042053926126481 0 0 0
168 1 -2.0986108116429243 -4.546768312524837 -4.563791301925131 0 0 0
681 2 -0.6848871854031151 -3.107326466823053 -5.977646807071143 0 0 0
697 2 -0.769002807627133 -3.141314213024231 -3.0328121604460603 0 0 0
170 1 -10.363848382253934 -1.5352783032355213 -4.5983263930066425 0 0 0
172 1 -7.656556108083107 -1.5978991092746972 -4.580896810625296 0 0 0
174 1 -4.955894779084111 -1.630490094336484 -4.543220676022346 0 0 0
191 1 -3.5525720250550314 -3.05797483987584 -3.0695987607836677 0 0 0
295 2 -3.6464202758630293 -0.15727291330960388 -6.041991645557561 0 0 0
176 1 -2.123673639983836 -1.5239575902049245 -4.525755808440957 0 0 0
177 1 -11.719440881443816 -5.85179092010711 -3.0065134472800192 0 0 0
178 1 -10.22828535825018 -4.482519308635834 -1.4139611419990916 0 0 0
180 1 -7.629763261411976 -4.527929540280749 -1.4989091536806984 0 0 0
182 1 -4.951884331945256 -4.545899800175642 -1.5793747613527649 0 0 0
184 1 -2.1715916734799308 -4.569781178403052 -1.5857022519624284 0 0 0
713 2 -0.8370428386069465 -3.0962841386339166 -0.1123983654384928 0 0 0
185 1 -11.656013425807306 -2.9702876104598115 -2.9579949173969395 0 0 0
186 1 -10.161811036687732 -1.506776208490438 -1.5038960051953347 0 0 0
305 1 -11.572178318393771 -0.0295513479866304 -2.9190294258788914 0 0 0
188 1 -7.594495927731238 -1.4410210554099139 -1.6945425591015013 0 0 0
203 1 -8.848067202759887 -2.937390619733211 -0.016822547112361676 0 0 0
205 1 -6.240776227052544 -2.8966347549633733 -0.19343273299180444 0 0 0
190 1 -4.956562723562797 -1.4242117013592734 -1.7421421991131245 0 0 0
207 1 -3.6000501081914837 -2.9445978900714858 -0.25116298812281185 0 0 0
192 1 -2.204969354746217 -1.4579254213175907 -1.6294212012873763 0 0 0
199 1 -3.6571732717098397 -6.040087928622143 -0.06915714482827498 0 0 0
194 1 -10.1034199206823 -4.389318849967419 1.67466633221407 0 0 0
193 2 -11.436797327488016 -5.986059029629111 0.2504584121012871 0 0 0
201 1 -11.548368353775533 -2.9951455716032327 0.20874016624942346 0 0 0
196 1 -7.491881215474625 -4.361721097178565 1.4509006056907876 0 0 0
213 1 -6.1979313944535015 -5.869349859313325 2.9012956296448107 0 0 0
197 1 -6.303415807652484 -6.02805062053479 0.02116569039540503 0 0 0
195 1 -8.878167124117617 -6.006609379374625 0.14739938543393888 0 0 0
198 1 -4.901865969719766 -4.381067336361919 1.2943589676573677 0 0 0
215 1 -3.6337528739325013 -5.946830177167144 2.849803610491631 0 0 0
200 1 -2.19905796565971 -4.50814396990834 1.3623419767400038 0 0 0
729 2 -0.7882384846118247 -3.1609189756945497 2.8879825830875605 0 0 0
202 1 -10.055791447878454 -1.6920520020421146 1.8378047497774925 0 0 0
321 1 -11.45528463609025 -0.19379560993195555 0.2962705124874182 0 0 0
204 1 -7.414589574325281 -1.7823306608624763 1.788080373292653 0 0 0
325 1 -6.239614297263589 -0.25953246888643716 0.17448261392135964 0 0 0
323 1 -8.773006108394387 -0.312941241964808 0.2777136381992945 0 0 0
206 1 -4.851822118402005 -1.725526949185679 1.6560312296388193 0 0 0
327 1 -3.7065817862493136 -0.14626514911460203 0.03276801997429461 0 0 0
208 1 -2.2688575992893276 -1.6384193018893756 1.47338400591018 0 0 0
209 1 -11.522180216151208 -5.913932513220951 3.2164632746537745 0 0 0
210 1 -10.073738089832002 -4.558713229789493 4.790941682269089 0 0 0
217 1 -11.514918119333869 -3.036731702199644 3.324532353331759 0 0 0
211 1 -8.777325764344194 -5.864823319518081 3.0827957051189068 0 0 0
219 1 -8.697517301779024 -3.1619135944936487 3.3598256773371222 0 0 0
212 1 -7.354249763835143 -4.707782561292718 4.887002420434832 0 0 0
221 1 -6.067569272248515 -3.250472476803223 3.328447351214572 0 0 0
223 2 -3.5952579457334446 -3.2082154507638205 3.1458801726694197 0 0 0
214 2 -4.794055288093334 -4.778564706304691 4.857793733633882 0 0 0
216 1 -2.091304627936718 -4.623574213164772 4.525561221876866 0 0 0
218 1 -10.022183898730319 -1.52722877110561 4.709015276292076 0 0 0
337 1 -11.391662855230143 -0.03332385275989456 3.269114716369369 0 0 0
220 1 -7.335834259069973 -1.4199123956396413 4.538787955011541 0 0 0
222 1 -4.797164431858416 -1.3034438588967965 4.41792141384579 0 0 0
239 1 -3.45614056015587 -2.92506045713433 5.994502439517713 0 0 0
224 1 -2.2442672199349114 -1.403959177474376 4.293622516336582 0 0 0
745 2 -0.916661841317069 -2.964707828133908 5.871638231301496 0 0 0
226 2 -10.036262827815372 -4.382489304839577 7.570952139153783 0 0 0
225 1 -11.517157044732226 -5.966630108220559 6.230990849841844 0 0 0
233 1 -11.557618402246524 -3.039798062647832 6.1938238067016265 0 0 0
241 1 -11.606915271916705 -5.914543801913448 9.044552823304835 0 0 0
228 1 -7.37006876239922 -4.408941980477389 7.652094227715434 0 0 0
230 1 -4.68804714515373 -4.4733380438785435 7.636629733049301 0 0 0
232 1 -1.9540896282739233 -4.581230061435562 7.565449186315101 0 0 0
234 1 -10.104473435483419 -1.6312612343326494 7.753923635248493 0 0 0
353 1 -11.50438346741574 -0.07721781862877145 6.21819689258493 0 0 0
236 1 -7.328285223571192 -1.727221087590571 7.942867242899472 0 0 0
355 1 -8.627992901380555 -0.2781973940720724 6.4384511624139265 0 0 0
235 1 -8.645654555994705 -2.941617808913097 6.1275055197571175 0 0 0
357 1 -6.015006106042157 -0.29094402935677327 6.469640685897542 0 0 0
238 1 -4.652932552317587 -1.8142933279554885 7.971508303881695 0 0 0
359 1 -3.5021126561967346 -0.28481187305822747 6.419091921970275 0 0 0
237 1 -6.01101330294092 -2.8671544965423377 6.088696002290536 0 0 0
240 1 -2.0298176296362387 -1.7795778194947616 7.891401150796546 0 0 0
865 2 -1.0438133296876415 -0.08719105767445033 6.229583995818368 0 0 0
242 1 -10.236511877476195 -4.525589367647841 10.712600900348257 0 0 0
249 1 -11.598057725453858 -3.0692626793302917 9.126078844955778 0 0 0
129 1 -11.755530637616411 -5.9606682149015295 12.067267919152778 0 0 0
245 1 -6.09359619416493 -5.983272584435981 9.095185544483236 0 0 0
243 1 -8.855414075701505 -5.902674758213778 9.110178141614107 0 0 0
244 1 -7.452059658120583 -4.613304495021072 10.774399386592727 0 0 0
251 1 -8.797483732490994 -3.106962623835268 9.317163143266583 0 0 0
256 1 -1.940426849954232 -1.456785227119099 10.688494441820943 0 0 0
253 1 -6.027001938518036 -3.2008077098773273 9.410694869116433 0 0 0
246 1 -4.7310491066346065 -4.701620151466059 10.846062686028898 0 0 0
255 1 -3.3083447774413157 -3.292450910510911 9.435630314859381 0 0 0
248 1 -1.8918097964309415 -4.761597535723341 10.895476943414486 0 0 0
761 2 -0.6552770118813491 -3.2868003069911933 9.4013591302372 0 0 0
250 1 -10.196860194578159 -1.5382801847431822 10.635403724565501 0 0 0
369 1 -11.540845215038573 -0.07721592978992418 9.13857078459556 0 0 0
257 1 -11.677873941371775 -0.06591266113891238 12.0877564918936 0 0 0
137 1 -11.72584740002291 -2.9930336507332074 12.060788997773155 0 0 0
252 1 -7.420704999075689 -1.5204153169582248 10.69536902065113 0 0 0
371 1 -8.744462939197145 -0.058820394247490665 9.184820266628948 0 0 0
254 1 -4.667297763561153 -1.512299382187268 10.698626694044162 0 0 0
258 1 -10.266707006898963 1.4451552313432021 -10.627688589600654 0 0 0
281 1 -11.70495442527051 2.9075173350299344 -9.153986485693007 0 0 0
260 1 -7.543575166202004 1.4586310202430857 -10.567045612477697 0 0 0
262 1 -4.873694435034185 1.5614124573447143 -10.50657629210101 0 0 0
769 2 -0.8598454901357111 0.027185909767694458 -11.787333617941124 0 0 0
264 2 -2.3782284119191184 1.7382133901630463 -10.465485342091899 0 0 0
266 1 -10.239052949423534 4.340819740314776 -10.54702678068624 0 0 0
385 1 -11.62068209464485 5.891238477823602 -12.056400721770936 0 0 0
387 1 -8.886977866580207 5.870064456122496 -11.921194141081719 0 0 0
268 1 -7.60977179711444 4.347855048326634 -10.415384391217348 0 0 0
389 1 -6.301970201892846 5.931533117097552 -11.811820963729579 0 0 0
269 1 -6.205043192668559 3.061099373995482 -12.063223293160295 0 0 0
270 1 -5.006405024705232 4.472173367929189 -10.382671320714048 0 0 0
271 1 -3.637499616560769 3.2340873531685523 -12.070181050215746 0 0 0
272 1 -2.2720486647804825 4.7115776994447 -10.428766284579007 0 0 0
777 2 -0.9707477498469896 3.338018669255388 -11.979905140731853 0 0 0
274 1 -10.368375856550058 1.380910293736255 -7.598803611298302 0 0 0
297 1 -11.702877453475985 2.9944842077782043 -6.237949818197232 0 0 0
288 1 -2.359947305756575 4.768897453434872 -7.477572211923018 0 0 0
276 1 -7.63274361331758 1.3436944845005059 -7.525072415182137 0 0 0
285 1 -6.3074872148038095 2.891332556108741 -8.927080627524335 0 0 0
283 1 -8.969443856788873 2.836331548772007 -9.010886776857678 0 0 0
793 2 -1.02543168892932 3.3361814418703153 -8.887335260677768 0 0 0
278 1 -4.929230705464177 1.4547722456490928 -7.457478641030142 0 0 0
785 2 -0.9747231575224994 0.12640701968214377 -8.946386830914783 0 0 0
280 1 -2.2589876236385247 1.683484748156042 -7.459054072970112 0 0 0
282 1 -10.338850600713252 4.544057010646662 -7.7376485885203605 0 0 0
299 1 -9.017709868664575 3.0517544278134463 -6.255574039476027 0 0 0
284 1 -7.731429709235876 4.6483049169501465 -7.722834177882734 0 0 0
301 1 -6.409882520004508 3.150306073699917 -6.221313914094827 0 0 0
287 1 -3.695703094225123 3.1422448115951007 -8.865188775840819 0 0 0
286 1 -5.118676487262859 4.754435739867814 -7.630223730524556 0 0 0
303 1 -3.7936772584017286 3.2944285744805835 -6.097673699134084 0 0 0
401 1 -11.639619913110495 6.012694332190917 -9.24676113806935 0 0 0
267 1 -8.844709724967728 2.958054309567724 -12.094519198597336 0 0 1
290 1 -10.293823133564059 1.5000801844182596 -4.713043661641533 0 0 0
307 1 -8.960950450246921 0.025473408243289038 -3.1932337099092263 0 0 0
292 1 -7.6765859716182705 1.5498009746724708 -4.758081734563708 0 0 0
309 1 -6.330916133749923 0.07361037088196686 -3.2507898646486066 0 0 0
294 1 -5.053047446513881 1.6184284713376 -4.768516185720271 0 0 0
311 1 -3.708507583183351 0.1001972284340081 -3.212174334559617 0 0 0
296 1 -2.391231666295074 1.7082433207748076 -4.6484728200830165 0 0 0
801 2 -0.9977892488108208 0.20736928747672054 -6.022246222099867 0 0 0
817 2 -1.2108277530776241 0.28880985401972964 -3.0794389069521166 0 0 0
417 1 -11.668016603828539 5.837905261785756 -5.9685366779591895 0 0 0
298 1 -10.228883201863182 4.207380155878537 -4.360017430583942 0 0 0
419 1 -9.105776878727077 5.818375980547151 -5.880957109194028 0 0 0
300 1 -7.728777835600789 4.303529515404503 -4.393571995842721 0 0 0
421 1 -6.496576647418084 5.9604361633875405 -5.9037604119201985 0 0 0
302 1 -5.179885098549499 4.483921289272841 -4.434754446881062 0 0 0
319 1 -3.8744024686245067 2.99401630019747 -3.049833580929163 0 0 0
304 1 -2.411894722008472 4.68372479707688 -4.466449642842744 0 0 0
809 2 -1.1067329644850266 3.321360990903731 -5.9373341165602405 0 0 0
306 1 -10.079849806728078 1.204535540543135 -1.209062846696074 0 0 0
313 1 -11.491090360226494 2.750843538722119 -2.7262605389742767 0 0 0
317 1 -6.405477591162573 2.786434516440037 -2.921934347072196 0 0 0
308 1 -7.578389088282841 1.2128476247852198 -1.3249833854298005 0 0 0
315 1 -8.93228790473068 2.6984044506021587 -2.8351096896901637 0 0 0
310 1 -5.0508240615587265 1.32366437285295 -1.4350134742227032 0 0 0
312 1 -2.4867239746559258 1.6917167415953258 -1.5667352696848693 0 0 0
833 2 -1.2252701244879147 0.3514410519400223 -0.10287601580170398 0 0 0
314 1 -10.14639790108333 4.648602488755279 -1.641857739927163 0 0 0
333 1 -6.401280071947504 3.224515887663777 -0.27517216072397727 0 0 0
331 1 -8.883516256886178 3.1361131972901313 -0.1491155568707198 0 0 0
316 1 -7.700455965391319 4.736425326908679 -1.7863945607814438 0 0 0
335 1 -3.9193316664417592 3.3131534258864495 -0.30727707922931613 0 0 0
318 1 -5.212541475964831 4.795470959162663 -1.8234152040772242 0 0 0
320 1 -2.551627124940728 4.733368149306443 -1.705738452077948 0 0 0
825 2 -1.174529378070758 3.2500371810005064 -2.9884057176510206 0 0 0
961 2 -1.2611999276854529 6.028454758522852 -0.14735520936421095 0 0 0
841 1 -0.9611722741338039 3.3052580715768416 -0.1392801659222719 0 0 0
322 1 -10.017980172227633 1.4927441122835616 1.5049605850646885 0 0 0
329 1 -11.445977246859885 2.9972551116463735 0.1540623190186792 0 0 0
324 1 -7.538364530019826 1.6362442938399737 1.364497115294668 0 0 0
339 1 -8.720022372963669 0.022010487210634942 3.0320174676029286 0 0 0
341 1 -6.204642317917463 0.14049726654120145 2.876589379218904 0 0 0
326 1 -5.062183696305583 1.7376549573507258 1.2396228269836502 0 0 0
343 1 -3.7472118080989945 0.2665760416970934 2.7566033439437234 0 0 0
328 1 -2.553722739503442 1.8594496185157752 1.2295956953487794 0 0 0
849 2 -1.341500715966711 0.3537764512929068 2.733401588289342 0 0 0
330 1 -10.00629374386874 4.17768851331153 1.9027168578581992 0 0 0
449 1 -11.436623991512786 5.765977265111974 0.3870983083734726 0 0 0
332 1 -7.536913393784225 4.220834947508246 1.815447721452117 0 0 0
451 1 -8.87178547043318 5.7288937747881254 0.29454265150290204 0 0 0
453 1 -6.397044931473035 5.8436992680780975 0.17958177278882131 0 0 0
334 1 -5.073162844816465 4.33011856685028 1.6926591400716864 0 0 0
336 1 -2.588236712038648 4.631356446664637 1.4082643668116663 0 0 0
857 2 -1.2586210904243984 3.242267897274358 2.784955604264544 0 0 0
345 1 -11.311792015019677 2.7291711243216374 3.3699202674530944 0 0 0
338 2 -9.880837976190392 1.1634837340291946 4.955426071718172 0 0 0
347 1 -8.745398242658933 2.668450074276871 3.419272731508067 0 0 0
340 1 -7.359440423398881 1.1631141386248243 4.931539303080427 0 0 0
349 1 -6.2310574087473665 2.707393157187611 3.3442993176436775 0 0 0
351 1 -3.7718545461371127 2.851725713950061 3.2329737395586666 0 0 0
342 1 -4.843097651869377 1.2328439434225653 4.864160664697329 0 0 0
344 1 -2.3334625595166854 1.3374894434926687 4.733803565338694 0 0 0
346 1 -10.037515875024832 4.578439252623493 4.600334588625796 0 0 0
365 1 -6.221143670013084 3.1598118681711345 5.9975080348154775 0 0 0
348 1 -7.535647215680139 4.671088806168985 4.4452028946383555 0 0 0
350 1 -5.0764845213907135 4.797702550545567 4.340862783934456 0 0 0
367 1 -3.75102972425058 3.3068340230720437 5.88799475561917 0 0 0
352 1 -2.561606028629417 4.841349792549474 4.246183461429234 0 0 0
873 2 -1.3558721626111265 3.3339095544134034 5.710416620848522 0 0 0
465 1 -11.343314535909897 6.039315666222615 3.1027954207307786 0 0 0
354 1 -10.03141165542855 1.4401800251462018 7.683158455419757 0 0 0
361 1 -11.377304533433605 2.905903030410879 6.140255192161118 0 0 0
356 1 -7.361976515263901 1.5358651933938003 7.6516102321980215 0 0 0
358 2 -4.78317021071019 1.675418983718202 7.528403439221605 0 0 0
360 1 -2.2796272081423994 1.82482841358693 7.513769477792795 0 0 0
881 2 -0.9316898274091456 0.2335671847525056 9.046886879936382 0 0 0
362 1 -10.039883734889374 4.280461991517475 7.815505290522634 0 0 0
481 1 -11.417553937978889 5.840041709288701 6.289167558138223 0 0 0
497 1 -11.485821366134227 5.932276026489926 9.086426416221709 0 0 0
483 1 -8.745726611069573 5.763567913993468 6.398516341802296 0 0 0
364 1 -7.419977447309669 4.267978354578998 7.946155556676751 0 0 0
485 1 -6.228575571158068 5.822262960607728 6.38397013995701 0 0 0
363 1 -8.718772766579574 3.0513280941987264 6.096893873189295 0 0 0
366 1 -4.8698336753076825 4.363205243132508 7.913772691111617 0 0 0
487 1 -3.748318009466711 5.992994161520805 6.273387828782245 0 0 0
368 1 -2.2794483212324566 4.607258258952797 7.751892578983769 0 0 0
370 1 -10.167891890109354 1.356341246906319 10.707183758108918 0 0 0
377 1 -11.526019119166518 2.8790428505151793 9.171431879036854 0 0 0
265 1 -11.623220062957703 2.9470372528844258 12.076085645390126 0 0 0