LAMMPS data file via write_data, version 2 Aug 2023, timestep = 10000, units = metal

1024 atoms
2 atom types

-12.096329500539635 12.096329500539635 xlo xhi
-12.096329500539635 12.096329500539635 ylo yhi
-12.096329500539635 12.096329500539635 zlo zhi

Masses

1 55.847
2 26.982

Atoms # atomic

2 1 -10.067156160991463 -10.403541319330374 -10.58472894005199 0 0 0
1 1 -11.510758273940775 -12.03616218963866 -11.95534920494682 0 0 0
17 1 -11.50329067865667 -12.011084775745669 -9.113116931855346 0 0 0
4 1 -7.516812070155952 -10.356016274818508 -10.575378900996332 0 0 0
19 1 -8.867621579486046 -11.943121158226916 -9.049995551895973 0 0 0
6 1 -4.991287118780424 -10.377820068149639 -10.458847685081881 0 0 0
8 1 -2.314082431446708 -10.518998776045878 -10.296810213645717 0 0 0
521 2 -1.2739644214388202 -9.159137796040492 -12.015493957346532 0 0 0
513 2 -1.2503168926603008 -12.007719627795357 -11.873958890753945 0 0 0
10 1 -10.09257888510179 -7.6364097005304075 -10.380102419101966 0 0 0
133 2 -6.231239164950241 -6.260690056839686 -11.721495328366352 0 0 0
12 1 -7.532666424776605 -7.72272697742495 -10.233602633743937 0 0 0
131 1 -8.76210096030039 -6.16641134386231 -11.794573597048819 0 0 0
14 1 -4.937398763126604 -7.762306146782147 -10.159749064212296 0 0 0
135 1 -3.7172424539518656 -6.285896926469158 -11.6965978051507 0 0 0
16 1 -2.269725200602333 -7.707396386184305 -10.225556477464929 0 0 0
641 2 -1.2198524103301276 -6.2353923268917155 -11.921818340381687 0 0 0
18 1 -10.24732755289854 -10.653791631145955 -7.365137546348365 0 0 0
21 1 -6.301044267961037 -11.935365704210323 -8.971042450677166 0 0 0
29 1 -6.3025548951687265 -9.215522176024244 -8.633333341639766 0 0 0
27 1 -8.861254993141387 -9.195895338496106 -8.73902179265563 0 0 0
20 1 -7.651550271229181 -10.746766589629328 -7.197596770277877 0 0 0
23 1 -3.684828259553998 -12.009335373068698 -8.862185917622819 0 0 0
31 1 -3.653205336067638 -9.176014074050949 -8.644339266171414 0 0 0
22 1 -5.0012644908584445 -10.68046968747048 -7.186195096279991 0 0 0
537 2 -0.8954271537323728 -9.168132151842068 -8.75466728380986 0 0 0
24 1 -2.196459318569518 -10.636490541410684 -7.293049410779101 0 0 0
25 1 -11.518659758644139 -9.059640845028857 -8.9851545020356 0 0 0
26 1 -10.156645922020795 -7.361302472715935 -7.600485258446675 0 0 0
41 1 -11.614898829631201 -8.90883621552128 -6.157633055938274 0 0 0
28 2 -7.5520970546201385 -7.30197194860598 -7.563464652717225 0 0 0
30 1 -4.943340279527158 -7.417363829605027 -7.4040529181819394 0 0 0
32 1 -2.1701047096366444 -7.550081170510509 -7.353587564444797 0 0 0
657 2 -0.8520979707565163 -6.07462151094648 -8.835182969101274 0 0 0
529 2 -0.918971315830449 -12.088444877361948 -8.821653634855197 0 1 0
15 1 -3.757311815353912 -8.955647873928772 -12.054131059755024 0 0 1
34 1 -10.357842504582655 -10.39637816098204 -4.590554443553886 0 0 0
49 1 -11.89602361879919 -11.891997217764404 -3.156968047272341 0 0 0
51 1 -9.145961613461838 -11.942530877720658 -3.0667427196757515 0 0 0
64 1 -2.187401803568309 -7.538841259077824 -1.509440013866413 0 0 0
36 1 -7.714484002935979 -10.429289337390433 -4.473574740303002 0 0 0
53 1 -6.409329395188149 -12.02779785679026 -3.0581210746106122 0 0 0
38 1 -5.003341175038488 -10.488098719052392 -4.430184252212765 0 0 0
40 1 -2.2323835696030656 -10.568528238452819 -4.415798696345881 0 0 0
553 2 -0.9058526704509543 -9.114675397518448 -5.853644701121731 0 0 0
42 1 -10.379858073140925 -7.494102556304455 -4.445572747510413 0 0 0
57 1 -11.905731894915531 -9.01719591399972 -3.091249247787136 0 0 0
44 1 -7.696140073505498 -7.52577875053288 -4.274527200762281 0 0 0
79 1 -3.666739706413888 -8.97190045194544 -0.11209254473929839 0 0 0
165 1 -6.305432629491876 -6.0703028270281365 -5.746072502138713 0 0 0
45 1 -6.358560109160139 -8.919043621972374 -5.9247683074348805 0 0 0
43 1 -8.933743666030669 -8.871586758934239 -6.019723741924199 0 0 0
46 1 -4.962394784023148 -7.548505809638099 -4.3501148731985815 0 0 0
167 1 -3.5659379199027614 -6.079637013705733 -5.8055329391435935 0 0 0
47 1 -3.639109115181946 -9.008768942380383 -5.894107552697014 0 0 0
48 1 -2.1689907316263195 -7.569226332382465 -4.3948613907138245 0 0 0
673 2 -0.8482202714089324 -6.089980170095757 -5.848160503468509 0 0 0
67 1 -9.158078648268921 -12.068513447012279 -0.04086959381383058 0 0 0
50 1 -10.525262621165261 -10.50005122586816 -1.4913917791356908 0 0 0
52 1 -7.759420919955823 -10.573408101508171 -1.4958326714329968 0 0 0
54 2 -5.0022859342023 -10.662779041678116 -1.5043361577803027 0 0 0
569 2 -0.9308738662442629 -9.099058882248679 -2.9422289510803328 0 0 0
56 1 -2.266083025484337 -10.574493661806972 -1.4968401620445109 0 0 0
585 2 -0.9348358244521728 -9.080659595283114 -0.03209620603476475 0 0 0
577 2 -0.9548601994230943 -12.027231136306261 -0.030953133968939173 0 0 0
58 1 -10.51064513582873 -7.403784055942845 -1.6190091496422134 0 0 0
75 1 -9.12514897957544 -8.86693411211004 -0.17760648903434303 0 0 0
61 1 -6.342718069665062 -9.032804693234414 -2.8869212266129654 0 0 0
59 1 -9.110322662868096 -9.033613850435852 -2.923248128726775 0 0 0
60 1 -7.742316302165787 -7.39358913051339 -1.5708103039754007 0 0 0
77 1 -6.3535704753709386 -8.908383194975713 -0.1763124875379729 0 0 0
63 1 -3.6551169732512623 -9.035270648743875 -2.917987028892156 0 0 0
62 1 -4.973602642594871 -7.375507365565513 -1.5468359071641975 0 0 0
689 2 -0.887386933264817 -6.060159397553227 -2.9296990841086012 0 0 0
561 2 -0.9445692120273663 -12.061154476504116 -2.934439276995138 0 1 0
55 1 -3.6547422298268164 -12.088924036987002 -3.020109032930411 0 1 0
71 1 -3.6801152779097093 -12.096224268738885 -0.015596812839960816 0 1 0
73 1 -11.944007384517834 -8.84022794243619 -0.03018571444692507 0 0 0
705 2 -0.8935258975655899 -6.097892502624807 -0.018134563032469107 0 0 0
66 1 -10.430485817337608 -10.317554618410192 1.304145895388688 0 0 0
65 1 -11.90148529520149 -12.015590285822167 0.014706209847346262 0 0 0
83 2 -9.084359596730211 -11.777142853569707 2.7103009004290977 0 0 0
68 1 -7.7395613631046025 -10.35378050482793 1.242460857955106 0 0 0
85 1 -6.4161276922568335 -11.857925111681762 2.7032120618869246 0 0 0
70 1 -5.025669680075599 -10.437624736732104 1.3062060982093882 0 0 0
87 1 -3.689022221550841 -11.945206332393713 2.806284269386489 0 0 0
95 1 -3.662922805730052 -9.053858880806757 2.8960353986503136 0 0 0
72 1 -2.2456761703519925 -10.512544225271421 1.3963459180452662 0 0 0
593 2 -0.9098510544906907 -12.007835180190167 2.8433746002792035 0 0 0
601 2 -0.8992670791742088 -9.068010706244799 2.892170866507744 0 0 0
74 1 -10.357477116043388 -7.508661359774869 1.5730058665720623 0 0 0
609 2 -0.8916902830888678 -12.015719434430963 5.714278632908258 0 1 0
93 1 -6.37604161382937 -9.057592924057875 2.9192735904352194 0 0 0
76 1 -7.7266401101724425 -7.546658997568182 1.4425501648573023 0 0 0
78 1 -4.9962609571382535 -7.54343368710627 1.4168589990593352 0 0 0
80 1 -2.20445489949971 -7.5652732617620275 1.4374318140060023 0 0 0
103 1 -3.72870458593185 -12.038876016498607 5.843509293853921 0 1 0
721 2 -0.8957419900423544 -6.08564730516649 2.9194145181102122 0 0 0
81 1 -11.639344105562795 -11.85612812141693 2.9910056593308814 0 0 0
82 1 -10.18012018758438 -10.60323675404863 4.699739665787497 0 0 0
84 1 -7.654945447546578 -10.622884122338236 4.55184624132468 0 0 0
86 1 -5.053085120212736 -10.563150202303868 4.395930221675477 0 0 0
617 2 -0.9035092041346673 -9.06601541094245 5.763334168649836 0 0 0
88 1 -2.21461362962553 -10.541896779662853 4.326946343014489 0 0 0
89 1 -11.618777082523156 -8.993907892256969 3.171473231079569 0 0 0
90 1 -10.21045606912366 -7.337267309949165 4.438628608430757 0 0 0
91 1 -9.002382562647412 -9.06873203638638 3.0401646088514966 0 0 0
107 1 -8.87685046631385 -8.806985503598465 5.840898425981134 0 0 0
109 1 -6.314636050254275 -8.857188159780758 5.762530359523878 0 0 0
92 1 -7.618814750021622 -7.339417533097648 4.258181795774702 0 0 0
94 1 -4.989560118865546 -7.441251627709346 4.26601550173041 0 0 0
111 1 -3.658893687713063 -8.99164737312958 5.756628382104182 0 0 0
737 2 -0.8814585206385042 -6.149744721778134 5.84025653623937 0 0 0
96 1 -2.205301335627196 -7.5407884813117905 4.349927226182736 0 0 0
231 1 -3.6291092894119528 -6.191445799450308 6.022524043197319 0 0 0
98 1 -10.091151852755797 -10.330713952341366 7.420069469539581 0 0 0
97 1 -11.508678144428005 -12.08025096391269 6.244404786690796 0 0 0
100 1 -7.570768062222695 -10.309722812661825 7.323897495087447 0 0 0
115 1 -8.825777845529972 -11.816093445689148 8.912783158683428 0 0 0
117 1 -6.311218415450874 -11.82822543150961 8.833179624401925 0 0 0
102 1 -5.015057737728725 -10.374905225138225 7.260175357172588 0 0 0
119 1 -3.805551524448925 -11.91214732302515 8.845575727567123 0 0 0
104 1 -2.309534639306433 -10.518671696395474 7.304805114008237 0 0 0
106 1 -10.059208749249171 -7.678097329869876 7.773439311610865 0 0 0
105 1 -11.503722345968217 -8.85908619286506 6.057687143719828 0 0 0
108 1 -7.54243865703449 -7.726243957162597 7.771963144093659 0 0 0
227 1 -8.816603938260618 -6.171459764461301 6.209197480805695 0 0 0
229 2 -6.312750145292582 -6.258012075704916 6.207921157801324 0 0 0
110 1 -4.94555671390837 -7.738211145516276 7.640890338972607 0 0 0
753 2 -1.2873573197905115 -6.0860666093042335 9.032233123274327 0 0 0
112 1 -2.3147770864298147 -7.696755251476309 7.474661544038661 0 0 0
113 1 -11.450656999022934 -11.903576534100932 9.1315450798924 0 0 0
114 2 -9.942410239772181 -10.762372780803611 10.913988188567583 0 0 0
116 1 -7.477367202899999 -10.794507574496482 10.912561204594615 0 0 0
123 1 -8.819974416967785 -9.223071378625692 9.351297543450462 0 0 0
125 1 -6.27321591567677 -9.262676953727402 9.296230794828983 0 0 0
118 1 -5.014296724660266 -10.770116619010265 10.8891639568041 0 0 0
127 1 -3.7894816633481323 -9.266039055840706 9.18522388339822 0 0 0
625 2 -1.3178218350346584 -12.001881168058407 9.116556011240517 0 0 0
633 2 -1.3125668774808281 -9.16300395822475 9.17201684294363 0 0 0
120 1 -2.492507080152643 -10.677071388599815 10.757174768341155 0 0 0
121 1 -11.403503086120743 -9.085662313951206 9.300580489375662 0 0 0
122 1 -10.016837346464849 -7.301414954203846 10.533769499347699 0 0 0
9 1 -11.445912801402448 -8.980287439922957 12.088338879994708 0 0 0
11 1 -8.785476124177318 -8.849381205726075 12.020215918033069 0 0 0
13 1 -6.2484801291535055 -8.836786491162007 12.025875016855249 0 0 0
124 1 -7.488229197805574 -7.316402821267725 10.439544663573308 0 0 0
126 1 -4.964814361355701 -7.371133381230592 10.425263075460132 0 0 0
128 1 -2.458837204449869 -7.5160117731370075 10.571983982415208 0 0 0
130 1 -10.048908243597566 -4.361664269193439 -10.605319710598657 0 0 0
145 1 -11.51704662491609 -5.939491613038084 -9.11164883854197 0 0 0
129 1 -11.439044777282529 -6.0134878953699 -11.997790860206596 0 0 0
132 1 -7.430863008042224 -4.316049477481672 -10.602450594923864 0 0 0
147 1 -8.825141565205069 -5.838431217152973 -9.093814062823826 0 0 0
134 1 -4.867372068733536 -4.332202115793731 -10.568316312810273 0 0 0
136 1 -2.2692859899357547 -4.4694549723323025 -10.46726517837374 0 0 0
138 1 -10.053285500117102 -1.576697886584923 -10.419129197760807 0 0 0
257 1 -11.422811192257667 -0.052619641381224116 -12.031215423990762 0 0 0
665 2 -0.8227249883855482 -3.0503968386561957 -8.790972483373949 0 0 0
259 1 -8.716307373207249 -0.16333393567182458 -11.854546085477605 0 0 0
140 1 -7.428549592423881 -1.6604380978091071 -10.253268144958323 0 0 0
261 1 -6.171877774599171 -0.2146993503659739 -11.776716434408982 0 0 0
263 1 -3.700021616965548 -0.23746908267778527 -11.773463620158378 0 0 0
142 1 -4.863769360402308 -1.710529745647036 -10.193551344366565 0 0 0
144 1 -2.2461820118131066 -1.6947009498311731 -10.240031376607643 0 0 0
769 2 -1.2677012205697482 -0.20632746710468614 -11.991857746091878 0 0 0
153 1 -11.536618018359675 -2.996604535474471 -9.05274426872311 0 0 0
146 1 -10.19478564055038 -4.523473222129322 -7.443405157574455 0 0 0
169 1 -11.673764133208444 -2.944735900860917 -6.133643904860662 0 0 0
161 1 -11.674562575799504 -5.979905667533796 -6.097369703624973 0 0 0
149 1 -6.171231708317024 -5.855238687349129 -9.028046705047077 0 0 0
148 1 -7.560377199484647 -4.586591957809811 -7.270918894758713 0 0 0
155 1 -8.802465406154097 -3.092028839816233 -8.832555125685621 0 0 0
157 1 -6.179684765172944 -3.16341260407755 -8.704349453901406 0 0 0
151 1 -3.5780272681698255 -5.960428619429407 -8.904876134033595 0 0 0
159 1 -3.552777301694016 -3.1674174537226345 -8.686690342455282 0 0 0
150 1 -4.889396708252511 -4.6239606620492895 -7.21290752275065 0 0 0
160 1 -2.138978218156827 -1.4369847989261202 -7.344810568434061 0 0 0
152 1 -2.0994282605843617 -4.58013576795907 -7.3038164479497985 0 0 0
289 1 -11.676618659289794 -0.03975919528134504 -6.095474502552541 0 0 0
154 1 -10.15834985148228 -1.4502879623875176 -7.559372669737522 0 0 0
156 1 -7.505883189873257 -1.4096075137672248 -7.465089566958515 0 0 0
158 1 -4.856069609359336 -1.3959401233126318 -7.4670470746733235 0 0 0
785 2 -0.9013717981832645 -0.02601479529495043 -8.90609298737171 0 0 0
137 1 -11.41808972658962 -2.941334758927886 -12.092353833734954 0 0 1
162 1 -10.369298396342545 -4.407682901803112 -4.534888816052836 0 0 0
177 1 -11.903844286550568 -5.890550877213551 -3.1062911148720946 0 0 0
185 1 -11.905821662441141 -2.9592551305443218 -3.0529588852553333 0 0 0
164 1 -7.657145004490073 -4.399735174173997 -4.44310587150373 0 0 0
166 1 -4.912306382195961 -4.437388339510752 -4.420428780952024 0 0 0
168 1 -2.1299834776069293 -4.5135368403284994 -4.411028032823081 0 0 0
170 1 -10.378503398522929 -1.5125606821093227 -4.444506067834802 0 0 0
192 1 -2.126199791100148 -1.4657151209754806 -1.4331690440357285 0 0 0
291 1 -8.944159092782362 -0.0858731644831423 -5.839938668590176 0 0 0
172 1 -7.6422424266192275 -1.5508479909404258 -4.324849992782514 0 0 0
293 1 -6.239068895493313 -0.1121418918143904 -5.733793089519255 0 0 0
173 1 -6.241580547122528 -2.926911834736578 -5.923985015001619 0 0 0
171 1 -8.938394721459193 -2.91746756068842 -5.975037739372543 0 0 0
174 1 -4.932142720660607 -1.6028957761823932 -4.250965747984165 0 0 0
295 2 -3.625631605830943 -0.16788133839000818 -5.665870854234924 0 0 0
175 1 -3.5534266304274436 -2.959029807677211 -5.889042632572242 0 0 0
176 1 -2.075609984844626 -1.4845326899516378 -4.353018794817519 0 0 0
681 2 -0.861907728602363 -2.996775439165392 -5.8487495685464 0 0 0
178 1 -10.50430792458346 -4.445113947421417 -1.4867719497371155 0 0 0
179 1 -9.097248036833454 -5.87726070890402 -2.9977591747266588 0 0 0
181 1 -6.331148258811357 -5.895387283140299 -2.9714107248648127 0 0 0
180 1 -7.724345806670335 -4.478482845078914 -1.4410263221004793 0 0 0
187 1 -9.083554639502074 -2.990583539969215 -2.918656635230266 0 0 0
189 1 -6.313152202621459 -3.0388826900272754 -2.8506647359370745 0 0 0
197 1 -6.372264660014696 -6.0221140669367 -0.031748023504522105 0 0 0
183 1 -3.5809040752334496 -5.963291348839934 -2.967979700658468 0 0 0
182 1 -4.928520775267301 -4.508383807059257 -1.4346643270995356 0 0 0
184 1 -2.1410444948407505 -4.529192322075987 -1.4258137059608191 0 0 0
697 2 -0.8651819566901627 -3.0551168868486758 -2.8802140598618915 0 0 0
186 1 -10.496884998345994 -1.4571416161633646 -1.5185057403506477 0 0 0
203 1 -9.091347647488814 -2.899168412933654 -0.059231858523938266 0 0 0
190 1 -4.908635876591719 -1.4393143102976496 -1.4708414349490093 0 0 0
205 1 -6.30127550449407 -2.899033079028519 -0.05709620070539482 0 0 0
188 1 -7.691943432825439 -1.440747307688615 -1.5071959366570267 0 0 0
191 1 -3.5359881372004653 -3.032986012492789 -2.8698297161207806 0 0 0
801 2 -0.7689374580216068 -0.0038805633612879094 -5.775164437595523 0 0 0
163 1 -8.957051800371529 -6.034528970802939 -5.82918107809886 0 0 0
195 1 -9.108177957056231 -5.981828930418835 -0.0012508476592924711 0 0 0
199 1 -3.584668290414497 -6.045356500209951 -0.017178969235795996 0 0 0
194 1 -10.375873843588868 -4.34402128597272 1.489832593553015 0 0 0
193 2 -11.787389362986353 -5.987376258441099 0.09007213013898853 0 0 0
211 1 -8.961489887062774 -5.839812462408617 2.847112239655481 0 0 0
196 1 -7.674427728156523 -4.370753146421985 1.3493679577316195 0 0 0
213 1 -6.3142404949961755 -5.909618434456647 2.7353536335673865 0 0 0
221 1 -6.2337404932217755 -3.0735170516654517 2.9647940927536007 0 0 0
359 1 -3.5765605624249117 -0.07314304059308567 5.962218156685604 0 0 0
198 1 -4.960609028565979 -4.492057814484818 1.2865111612575573 0 0 0
223 2 -3.682988507720568 -3.098656105317242 2.8732553847302587 0 0 0
215 1 -3.625641726260304 -5.996804207401082 2.8268051599007706 0 0 0
224 1 -2.1514465041152606 -1.475937245153919 4.30623918591966 0 0 0
200 1 -2.133528232286803 -4.505131584268605 1.469958939107716 0 0 0
201 1 -11.916837565713456 -2.9131071418327212 0.040351592333444396 0 0 0
202 1 -10.359764581763036 -1.4994748790897026 1.5820790569858518 0 0 0
321 1 -11.887523588002981 -0.00922838396393881 0.06341015682895358 0 0 0
323 1 -9.077267079022185 -0.03763461109682868 0.003090389308578669 0 0 0
204 1 -7.6386473877454675 -1.5130092779233755 1.4945545127321749 0 0 0
745 2 -0.8963079208087567 -3.0265301778988896 5.804716125249192 0 0 0
206 1 -4.913312533370257 -1.4209862033862026 1.493403990201851 0 0 0
207 1 -3.565990036240109 -2.938248269659452 0.008269790230830382 0 0 0
208 1 -2.164974916066054 -1.4706486458070775 1.5391209577317158 0 0 0
713 2 -0.8789118672895194 -2.993806813264083 0.05037521622241941 0 0 0
729 2 -0.7977672795932746 -3.063891273466897 2.939777600512562 0 0 0
210 1 -10.11202378828873 -4.520868636853716 4.645820228859028 0 0 0
209 1 -11.631720954571556 -5.87439719028104 3.126881655010779 0 0 0
219 1 -8.908172571807311 -3.008823092442949 3.055385145721795 0 0 0
212 1 -7.503699470971338 -4.634174394529084 4.572191986444643 0 0 0
214 2 -4.958146215629385 -4.7004660850791895 4.54461350250821 0 0 0
216 1 -2.1969922158602135 -4.5735779422344995 4.403003809377043 0 0 0
217 1 -11.644774033844003 -2.9604409271055774 3.267274773274826 0 0 0
218 1 -10.137625822169575 -1.3867901133730927 4.532765291319901 0 0 0
235 1 -8.71206174124139 -2.7930171128250163 5.838990420571307 0 0 0
220 1 -7.499772853325696 -1.2880059976630416 4.262715999835837 0 0 0
237 1 -6.172401571163995 -2.747278753391236 5.7268142205766726 0 0 0
239 1 -3.6312818725168174 -2.8774602108254506 5.703786951378893 0 0 0
222 1 -4.890464084185343 -1.2615765642942012 4.19893756415325 0 0 0
226 2 -9.936623615265988 -4.279445087767852 7.380820884044806 0 0 0
241 1 -11.391433666977242 -5.888703032881467 9.067040014571287 0 0 0
225 1 -11.420770827587909 -5.974475903092273 6.2274591508042425 0 0 0
228 1 -7.432276645674489 -4.267587096332881 7.310163019609079 0 0 0
245 1 -6.224228156938433 -5.812061316664813 8.86279696552923 0 0 0
243 1 -8.786309426648014 -5.791416730798076 8.92528889773909 0 0 0
230 1 -4.908366518307631 -4.334850719807596 7.263923695008405 0 0 0
247 1 -3.7189867665485976 -5.894924094931369 8.83743999484251 0 0 0
232 1 -2.2614748003628558 -4.4869859462766915 7.304471378063831 0 0 0
256 1 -2.4206232416589786 -1.3827713434138102 10.330011034142347 0 0 0
233 1 -11.555019262839133 -2.9817820557496697 6.126418826296526 0 0 0
234 1 -10.012622703386175 -1.590854851341276 7.6776603356754665 0 0 0
236 1 -7.387897217474554 -1.6816197256813203 7.750190103803645 0 0 0
357 1 -6.131313043092139 -0.1279429305830647 6.138103859248493 0 0 0
355 1 -8.670077805646269 -0.15168600196713408 6.241717344781181 0 0 0
238 1 -4.873241606028037 -1.7241474952009408 7.657445007535656 0 0 0
240 1 -2.3065932617823384 -1.6501277369499885 7.466089764835211 0 0 0
249 1 -11.381213438778449 -3.0579254278124726 9.149535749256804 0 0 0
242 1 -9.986865652397928 -4.588029920395705 10.82619443189419 0 0 0
251 1 -8.71206751054619 -3.160643686052066 9.281532618200938 0 0 0
244 1 -7.434951592823854 -4.701050396069471 10.863434309413142 0 0 0
253 1 -6.174734504475046 -3.2249440998773586 9.302781691198902 0 0 0
246 1 -4.937534959976489 -4.769399712384135 10.883354019510785 0 0 0
255 1 -3.7089500632595076 -3.2814286632124787 9.217405737266391 0 0 0
248 1 -2.39404621118999 -4.718019177633543 10.805749456780125 0 0 0
649 2 -1.2534880189838142 -2.8870505129108315 12.040375590441108 0 0 0
250 1 -9.983637636070531 -1.4012804999641306 10.52934774893663 0 0 0
761 2 -1.2447884137980267 -3.1299459650306445 9.106509200735452 0 0 0
141 1 -6.166254770013656 -2.77469629133498 11.99931299625591 0 0 0
252 1 -7.4200609019873776 -1.2949140894472178 10.43318890734514 0 0 0
139 1 -8.702251902430968 -2.8326667859113885 12.053087934226362 0 0 0
143 1 -3.703290581269484 -2.8288548608886486 12.00007900067518 0 0 0
254 1 -4.915469863336352 -1.2726266486247517 10.353535514363513 0 0 0
258 1 -10.039740116738407 1.5430785173493962 -10.594696833040372 0 0 0
260 1 -7.454667324281238 1.6358037935636747 -10.59603010409543 0 0 0
262 1 -4.9388227813408605 1.719985034406009 -10.628164139950638 0 0 0
264 2 -2.480522529247375 1.7366662484610351 -10.611613152187962 0 0 0
266 1 -10.06267593318941 4.318706970288596 -10.369860937422985 0 0 0
385 1 -11.487161639451559 5.848802632500495 -11.906958274303305 0 0 0
265 1 -11.451860259278394 3.022034758622694 -12.064888090179425 0 0 0
401 1 -11.485234712981265 5.969671738742454 -9.084770445990365 0 0 0
387 1 -8.772947004734677 5.825037844108818 -11.781972590079587 0 0 0
268 1 -7.470341112373015 4.279536529592354 -10.233336782245072 0 0 0
389 1 -6.244055294799729 5.817811319682336 -11.735712223678549 0 0 0
270 1 -4.928323859016672 4.312131904354916 -10.189058393231143 0 0 0
391 1 -3.7741869586377876 5.894326252934839 -11.750619186959186 0 0 0
272 1 -2.2842997964827494 4.446608682894261 -10.25373633886449 0 0 0
281 1 -11.492231116525236 2.888998126703522 -9.001998099904366 0 0 0
274 1 -10.17549655731209 1.3880303649211723 -7.418551616811165 0 0 0
297 1 -11.647400307667024 2.9707207077122626 -6.128277865438274 0 0 0
275 1 -8.765831424600954 0.07878518326838113 -9.038165458134491 0 0 0
277 1 -6.145169067529837 0.14006958464685085 -9.003889387250432 0 0 0
276 1 -7.522819099398547 1.3519848319175312 -7.2382119175025235 0 0 0
285 1 -6.184542113087548 2.806226753394343 -8.679178124652202 0 0 0
283 1 -8.802707921885377 2.825132553880843 -8.796001809640517 0 0 0
279 1 -3.528738083769924 0.1407999506906749 -9.044006837909745 0 0 0
287 1 -3.566457728538694 2.8768313177402343 -8.665546798312924 0 0 0
278 1 -4.819818719151458 1.3511962433273812 -7.179062750764446 0 0 0
793 2 -0.8565414052068433 3.0148492228195822 -8.706057092400664 0 0 0
288 1 -2.163725052493982 4.5751516879897665 -7.340264394263191 0 0 0
280 1 -2.143425884671379 1.40991550031622 -7.20750163417717 0 0 0
282 1 -10.196292673663624 4.5007154728719785 -7.547843779303919 0 0 0
284 1 -7.567816071880589 4.551778095837959 -7.456424675588242 0 0 0
286 1 -4.917022411778484 4.599703909762288 -7.419097646346097 0 0 0
897 2 -1.3547302672606854 6.031620817428005 -12.061254593060346 0 0 0
273 1 -11.501794089808612 0.005634935898810931 -9.084337482782042 0 0 0
290 1 -10.364083234761692 1.500618900891453 -4.510118926961616 0 0 0
292 1 -7.643683986233522 1.5302277994407 -4.425028689115882 0 0 0
299 1 -8.94765787190568 3.018532639461952 -5.9626138466287735 0 0 0
294 1 -4.908522205859852 1.5849351755684284 -4.406794177593485 0 0 0
296 1 -2.157515890912071 1.5303608459362696 -4.402285194996292 0 0 0
307 1 -9.075737407988951 0.02952332900455135 -2.9685299639911666 0 0 0
298 1 -10.411733364587121 4.381806127347165 -4.403993560808012 0 0 0
419 1 -9.033710275126216 5.841782105752639 -5.777476606428199 0 0 0
417 1 -11.68595088686973 5.904857027022878 -6.036066654693015 0 0 0
300 1 -7.681637745614103 4.407100414575911 -4.314058417138836 0 0 0
421 1 -6.300407998916772 5.902165435570045 -5.737447983750893 0 0 0
301 1 -6.255760850044177 3.059015068473851 -5.907712346642709 0 0 0
302 1 -4.945285859866954 4.467348448933119 -4.286498963273624 0 0 0
423 1 -3.563126563679613 5.936036817437848 -5.7278980774763 0 0 0
303 1 -3.573704078160407 3.1383679956307584 -5.8678715503371714 0 0 0
809 2 -0.8632671121368607 3.0759243204213083 -5.785379861802581 0 0 0
304 1 -2.116505914404446 4.544376283724864 -4.320910629851648 0 0 0
825 2 -0.842483350918475 3.113091970471918 -2.8390658793032 0 0 0
313 1 -11.919444534033511 2.943423918797151 -3.029462868219998 0 0 0
306 1 -10.494667243538984 1.47197959486192 -1.4573217237246694 0 0 0
315 1 -9.09321222371117 2.9308169180850374 -2.903616469059802 0 0 0
309 1 -6.294498983462925 0.054701203479576424 -2.9353798409154375 0 0 0
317 1 -6.3264232047688775 2.963956533448959 -2.8671681002679903 0 0 0
308 1 -7.709167625837248 1.4682306122628035 -1.4479662088159215 0 0 0
319 1 -3.575035871842316 3.0178461341398553 -2.8861808942090024 0 0 0
310 1 -4.9315598510159075 1.5190511888681224 -1.4276415913966123 0 0 0
311 1 -3.561918146193731 0.05672135547995781 -2.9026612134245617 0 0 0
817 2 -0.9019807565119025 0.07467943315641384 -2.8754534932953 0 0 0
312 1 -2.1555606785390826 1.609645409551324 -1.4264244671999728 0 0 0
331 1 -9.099900404846698 3.0695556254469967 -0.11322416570876016 0 0 0
305 1 -11.892734879199127 0.01838583938618616 -3.0406681424706044 0 0 0
314 1 -10.517658357484388 4.513599271311289 -1.544239187973427 0 0 0
333 1 -6.346410093678786 3.104142233858171 -0.09111376645440568 0 0 0
316 1 -7.73889484775884 4.571383854997691 -1.5429342218198376 0 0 0
453 1 -6.398870160688341 6.016705869352448 -0.008809216610038813 0 0 0
335 1 -3.5911302333596185 3.136966626450536 -0.03169646942852893 0 0 0
318 1 -4.980117592744717 4.595088587339978 -1.5051184179138382 0 0 0
961 2 -0.9294628589430115 6.04378428484882 -0.014218463741674368 0 0 0
320 1 -2.2128678182399883 4.597958496868139 -1.4715158125442394 0 0 0
433 1 -11.927257460756739 5.969817036769697 -3.0702840830330693 0 0 0
435 1 -9.131188282379114 6.038956146156636 -3.0017145524699957 0 0 0
322 1 -10.354224181113615 1.548796524733539 1.3906944552682954 0 0 0
339 1 -8.946819878338438 0.1335788785704105 2.8546332464104465 0 0 0
324 1 -7.68952524006482 1.626903158518608 1.337202306267946 0 0 0
341 1 -6.280749779048529 0.21474179624574768 2.7852014826476243 0 0 0
349 1 -6.322975364599036 2.9347494305104576 3.0091229220088915 0 0 0
326 1 -4.940720541073068 1.6579581640556942 1.3589530298642558 0 0 0
343 1 -3.55841974811455 0.26272376037980416 2.8692774651677824 0 0 0
327 1 -3.5515606339532826 0.05424899886000683 0.03148266295313288 0 0 0
328 1 -2.1561567401316473 1.693604040819066 1.4593231969752665 0 0 0
849 2 -0.9075908440146415 0.10576770199660523 2.9595115363727356 0 0 0
833 2 -0.887599505236662 0.1508211347204881 0.04191389976819685 0 0 0
330 1 -10.325917862732071 4.351335894457077 1.6220696713973883 0 0 0
449 1 -11.857740818037177 5.904715633120981 0.17564093797637795 0 0 0
451 1 -9.136014923140548 5.919197602593433 0.03261474234829548 0 0 0
332 1 -7.703873653537632 4.447129748853831 1.5182652112679071 0 0 0
334 1 -5.026264566689216 4.534832260243702 1.4828145892675733 0 0 0
351 1 -3.6373135950566584 3.0969845028445584 2.968290550698443 0 0 0
336 1 -2.245250949498861 4.633704096804022 1.4768566796399736 0 0 0
857 2 -0.8425993158202406 3.2113218608447025 2.87790142061702 0 0 0
337 1 -11.590354184238524 0.10359657060758302 3.2128736833476137 0 0 0
345 1 -11.5029290114374 2.8802077031989652 3.267580737382142 0 0 0
338 2 -9.971569475662385 1.3243132091181948 4.790634456015561 0 0 0
347 1 -8.94549286356989 2.896901092023249 3.1173284744540646 0 0 0
340 1 -7.496825373826695 1.3905342911213132 4.627545868262306 0 0 0
342 1 -4.913762315764163 1.5124564799383295 4.5218611384194825 0 0 0
873 2 -0.8987412028686148 3.31674532602327 5.714257176426597 0 0 0
344 1 -2.1579289266515773 1.6594585858917283 4.426670938629585 0 0 0
865 2 -0.9368220755075577 0.04609148744920405 5.865441376698245 0 0 0
325 1 -6.315544908729385 0.010610826365948676 0.0038979923190244057 0 0 0
346 1 -10.209328390326142 4.767037672906522 4.386090869156623 0 0 0
365 1 -6.276315635218229 3.332054049945113 5.739097665815436 0 0 0
363 1 -8.824975598620743 3.2821333777908386 5.816877370337816 0 0 0
348 1 -7.6095335167752065 4.798418826716638 4.219931245662125 0 0 0
367 1 -3.6432634628165896 3.360673170988487 5.709693855508043 0 0 0
350 1 -5.04330075597632 4.8124471971642455 4.218487563547922 0 0 0
352 1 -2.2286120656699135 4.788850616198417 4.30199255905556 0 0 0
841 1 -0.5988564771485136 3.1714933028927885 0.029898686000858956 0 0 0
329 1 -11.89613250478644 3.015662972975578 0.06686484158336059 0 0 0
354 1 -10.007191487367216 1.6480544842993992 7.487666239015494 0 0 0
353 1 -11.48358516268307 0.02769648517348435 6.180159814988587 0 0 0
356 1 -7.455063585598393 1.798053167268642 7.308205210335488 0 0 0
373 1 -6.189003781391898 0.25697655028623423 8.815145734708704 0 0 0
371 1 -8.711625604608004 0.17454144396979124 8.932400428267663 0 0 0
358 2 -4.88921951368858 1.8375365273747426 7.1903579293838895 0 0 0
375 1 -3.747087729143105 0.256912061745788 8.694857076549653 0 0 0
881 2 -1.3161597633294633 0.15166699660798574 8.831302804331344 0 0 0
360 1 -2.2898527775686266 1.8179603643862938 7.207824758694219 0 0 0
362 1 -10.027814657085607 4.386304691339522 7.753294528367878 0 0 0
481 1 -11.469083107895491 5.965991065634898 6.245362866603979 0 0 0
364 1 -7.491531243627383 4.390211793033746 7.747190595774244 0 0 0
483 1 -8.842528026538936 5.899356418959553 6.192954852557219 0 0 0
485 1 -6.283086926129068 5.963437772917864 6.1472505316027055 0 0 0
366 1 -4.93480301002253 4.465003642144439 7.648017448441155 0 0 0
368 1 -2.3475143516324195 4.652920726139005 7.460462508743043 0 0 0
370 1 -10.002701326550767 1.3817578058599937 10.767223086758582 0 0 0
377 1 -11.412451434444604 2.9422772002526907 9.177890718110588 0 0 0
379 1 -8.727179135951367 2.8521584654189756 9.299002096084637 0 0 0
372 1 -7.439853989477358 1.3032983310924209 10.845302321846455 0 0 0
381 1 -6.2174294530266465 2.8357540263207413 9.290844210067982 0 0 0
374 1 -4.94540511392301 1.2879626031349358 10.841879325964515 0 0 0
383 1 -3.765980402628393 2.876538341353751 9.197516707146494 0 0 0