LAMMPS data file via write_data, version 2 Aug 2023, timestep = 10000, units = metal

1024 atoms
2 atom types

-11.895282088149578 11.895282088149578 xlo xhi
-11.895282088149578 11.895282088149578 ylo yhi
-11.895282088149578 11.895282088149578 zlo zhi

Masses

1 55.847
2 26.982

Atoms # atomic

4 1 -9.499673984403183 -10.268562870457696 -10.798389036696582 0 0 0
27 2 -10.846385842906763 -9.002871237948913 -9.050004741066953 0 0 0
19 1 -10.772725366040703 -11.881317196428753 -9.135379944643189 0 0 0
21 2 -8.089410455059644 -11.51395374425021 -9.309216380674341 0 0 0
6 1 -6.178862204209448 -10.416686433254196 -10.628264673510078 0 0 0
8 2 -3.4205612450054605 -10.311121851942806 -10.85421900826717 0 0 0
23 1 -4.4993870887291205 -11.804151768314302 -9.053642468366164 0 0 0
529 2 -1.6787808885555104 -11.819476463691855 -9.331206298104416 0 0 0
537 2 -1.6125703397710165 -9.05548079855232 -9.440989069911796 0 0 0
32 1 -2.861697762892692 -7.746926711944518 -7.748037219075877 0 0 0
147 1 -10.818199261677618 -6.207222612304918 -9.054512825892727 0 0 0
12 2 -9.45246033001664 -7.623260574488755 -10.868326125675779 0 0 0
29 1 -8.016356164254658 -8.883698314913163 -9.344955858842559 0 0 0
14 2 -6.250020805973629 -7.5847468781627025 -10.351061985888428 0 0 0
133 1 -7.844801530765654 -6.068869217394722 -11.883241245390165 0 0 0
149 1 -7.878702027438341 -6.137020621668678 -9.078565065570098 0 0 0
16 1 -3.331768039934496 -7.6633671689121865 -10.659428336420456 0 0 0
151 2 -4.480605260059505 -6.204477871804945 -8.928551066450321 0 0 0
657 2 -1.523315249843654 -6.282324434048702 -9.476814827217 0 0 0
20 1 -9.242948925974812 -10.391691300049198 -7.471000557253526 0 0 0
35 2 -10.859992698792235 -11.874819200668133 -6.307058926554959 0 0 0
43 2 -10.854984503192599 -9.003520328279883 -6.099863314173313 0 0 0
22 1 -6.532202105530948 -10.449410065646061 -7.829455479218475 0 0 0
31 2 -4.736938166906906 -9.160991097058881 -8.86256669095619 0 0 0
24 2 -3.02349568794151 -10.531611047388646 -7.418707926613976 0 0 0
47 1 -4.714643266027122 -9.062499777610643 -6.209271999524191 0 0 0
39 1 -4.8540545539850015 -11.779753953058385 -6.343252513939948 0 0 0
553 2 -1.312926213631146 -9.026840933312421 -6.075140658409692 0 0 0
163 1 -10.809948296883906 -6.226282772825544 -6.203017055815582 0 0 0
28 2 -9.088581673288148 -7.662194588327015 -7.57089919182767 0 0 0
165 1 -7.802870643187297 -6.205976848202768 -6.106841853661415 0 0 0
30 1 -6.303913361281324 -7.623147015494896 -7.657488058111209 0 0 0
167 1 -4.410730987078738 -6.234240517690187 -6.313011867888774 0 0 0
673 2 -1.4781805744476622 -6.226412622278228 -6.174855918827975 0 0 0
45 2 -7.552560286913602 -9.156658533542734 -5.985651700989401 0 0 0
36 1 -9.402132305992073 -10.436458879065187 -4.673589491020337 0 0 0
53 1 -7.7272984080513165 -11.743652425205978 -3.196106794304135 0 0 0
37 2 -7.587835256385698 -11.854611143014099 -5.860551515082621 0 0 0
570 1 -0.2726174918666518 -7.671681549867083 -1.0412818142166047 0 0 0
38 2 -5.839660554716125 -10.500257970674452 -4.4997019229428865 0 0 0
40 1 -3.180441750425972 -10.408356557792104 -4.645449751359818 0 0 0
546 2 -0.022348021508370258 -10.32802574524271 -4.118497717151109 0 0 0
545 2 -1.3804825801734928 -11.850620751383033 -5.789342814655742 0 0 0
44 2 -9.341682906096256 -7.599179655731308 -4.584447620891101 0 0 0
61 1 -7.581743523990312 -8.994738448759115 -3.303823248528844 0 0 0
46 2 -6.011285455320064 -7.443366017892782 -4.879990588596455 0 0 0
181 2 -7.648615569320203 -6.18362654065788 -3.2648413247418753 0 0 0
63 1 -4.658569701450355 -8.935613066062809 -3.0525169140962536 0 0 0
183 2 -4.576902928046594 -6.292316319893533 -3.1081634458145375 0 0 0
48 2 -3.063230392264959 -7.732384184073192 -4.731327128822486 0 0 0
554 1 -0.07678889810582533 -7.719205123057166 -4.159929618989253 0 0 0
689 2 -1.6678745675839621 -6.368603859224728 -2.660005207304904 0 0 0
52 1 -9.048138965901648 -10.446220591653145 -1.4927934157013782 0 0 0
59 2 -10.65501662273348 -9.046313912536718 -2.83430993246941 0 0 0
54 2 -6.290979371344316 -10.373785165443946 -1.5485274852740878 0 0 0
55 1 -4.5621215323709245 -11.788208653405544 -2.84236337604311 0 0 0
56 1 -3.3057336657300005 -10.368262279921844 -1.2129012463253195 0 0 0
562 1 -0.2623352195243094 -10.347929568208551 -1.2008781144929344 0 0 0
561 1 -1.8157836574599873 -11.749515920959652 -2.9731506685877935 0 0 0
569 2 -1.9227786199887986 -9.111274795918987 -2.7262038746248205 0 0 0
60 1 -9.071126929172957 -7.583172820432622 -1.607593685021684 0 0 0
179 2 -10.73090750603383 -6.134197609006365 -2.9519071081329504 0 0 0
62 2 -6.249918837239805 -7.624217719067203 -1.5611082853878604 0 0 0
64 1 -3.331338607511039 -7.548474209345652 -1.2977264760608396 0 0 0
68 1 -9.252815962866771 -10.425858365673417 1.6969555770047875 0 0 0
602 1 -0.16854646412480903 -7.571476706793157 4.462893592776531 0 0 0
721 2 -1.981418896408742 -6.003664083353543 3.0932916979172247 0 0 0
75 1 -10.595220044778582 -9.015668967084682 0.027534074661978394 0 0 0
70 1 -6.382678660583612 -10.43502057097926 1.6550094738286478 0 0 0
96 1 -3.393437413423619 -7.391426365222528 4.624939890839485 0 0 0
72 1 -3.403671545191621 -10.426228798695833 1.7159898213826532 0 0 0
71 2 -4.939182414252576 -11.777074198949832 0.2246622950987837 0 0 0
79 1 -4.913596542447044 -8.964871418999376 0.1591647325836346 0 0 0
578 1 -0.15460163219963793 -10.382677157501993 1.8571508977098843 0 0 0
585 2 -2.0228779027337964 -8.957371373505648 0.31501591349117 0 0 0
577 2 -1.7038133908581843 -11.605877011836705 0.4330160374382763 0 0 0
76 1 -9.17046652586657 -7.497169415437688 1.6500020926210663 0 0 0
195 2 -10.462448174146626 -6.377910361324694 0.0025793138973590783 0 0 0
77 2 -7.863600329311641 -8.955773720730127 0.18024157567939425 0 0 0
78 2 -6.30164863210389 -7.615748663966616 1.7514098816770582 0 0 0
197 1 -7.60381660967343 -6.19639347217162 0.03622364662107907 0 0 0
80 1 -3.4736252801971284 -7.47304140188011 1.715265497645488 0 0 0
199 2 -4.903649719011761 -6.048892710349835 0.07525072257009402 0 0 0
586 2 -0.23852333019979763 -7.592613109031059 1.8049926326811905 0 0 0
705 2 -1.970863067219023 -6.184291113029805 0.23644774174984404 0 0 0
82 1 -11.889266012112332 -10.586160985882575 4.5119105660592425 0 0 0
84 2 -9.157777756527583 -10.563577382462823 4.544210993894163 0 0 0
86 1 -6.379408369560291 -10.458566813870089 4.671310293408556 0 0 0
93 1 -7.814014644812904 -9.011087501957869 3.2030689388073807 0 0 0
87 2 -5.006943439575879 -11.82154706380369 3.1440050234971264 0 0 0
88 1 -3.520258777806946 -10.467218019798018 4.631529135213297 0 0 0
95 1 -4.916785820793954 -8.999010571283051 3.2235652622026665 0 0 0
594 2 -0.27211454794426587 -10.407829000400277 4.57445194107165 0 0 0
601 2 -2.1036695284119276 -8.936935049462473 3.2417013447175553 0 0 0
593 2 -2.052312176976134 -11.818511753990506 3.1767479139078327 0 0 0
91 2 -10.665198818858585 -8.790156176952431 3.074933011218148 0 0 0
92 2 -9.127384920450382 -7.347585912800422 4.485207275398663 0 0 0
94 1 -6.449195327777419 -7.376315067520203 4.602362239984103 0 0 0
215 2 -4.907015300406186 -6.059403451715103 3.2185731982980994 0 0 0
100 2 -9.36147882378111 -10.576693082893515 7.459528070189972 0 0 0
102 2 -6.303857900332492 -10.305280291433105 7.412823499396995 0 0 0
109 1 -7.955574084564296 -8.971112171325032 6.037799422539653 0 0 0
104 1 -3.5372036866130303 -10.426113392122458 7.375908159109853 0 0 0
633 2 -1.984938899794909 -9.085737195080737 8.75300915529696 0 0 0
617 1 -1.8703541555076881 -8.986987013363079 6.012708075757698 0 0 0
610 2 -0.2081782435098815 -10.57187863920036 7.3027797489566915 0 0 0
123 1 -10.863391021912733 -9.055955121124688 8.892359225293989 0 0 0
108 1 -9.430323473590182 -7.383778043334593 7.524997291382841 0 0 0
107 2 -10.800168012152918 -8.891668784606129 6.073987397266609 0 0 0
125 2 -8.057930033960872 -8.998670257647337 8.954180726711298 0 0 0
110 1 -6.499723709383804 -7.504708012597714 7.548419977837191 0 0 0
112 1 -3.343098937490672 -7.449370839458689 7.450810825129826 0 0 0
231 2 -5.002443351747532 -6.168392475140861 6.204469611449335 0 0 0
111 1 -4.93514156494633 -8.820692586741401 6.006245473748958 0 0 0
634 2 -0.009949178122893356 -7.811017392752946 10.00179267345441 0 0 0
753 2 -1.7518797060100555 -6.088271748358014 8.813301488401777 0 0 0
737 2 -1.7648003503737142 -6.197853211482876 6.030065853749023 0 0 0
116 1 -9.421965850337804 -10.63787810176358 10.20509577970864 0 0 0
118 2 -6.2510388085820425 -10.670041864647859 10.256131599761334 0 0 0
5 2 -7.977108425380554 -11.78080526274366 11.75084168290328 0 0 0
120 1 -3.4499941641075846 -10.50170843351477 10.30683914162894 0 0 0
626 1 -0.10457138799704203 -10.63012992763652 9.933502919884932 0 0 0
521 1 -1.5914223912620051 -9.022653697128655 11.537039722779406 0 0 0
513 2 -1.6756887072952324 -11.71178144967548 11.606215761213807 0 0 0
11 1 -10.996833189826951 -8.96017802571137 11.502364238220103 0 0 0
124 1 -9.388323738198252 -7.383265928409509 10.23853713698366 0 0 0
13 1 -7.768529362903264 -8.902411415050377 11.623671628244594 0 0 0
126 2 -6.626036496401577 -7.173160914101168 10.093903732330393 0 0 0
127 1 -4.918452709753142 -8.873140703946413 8.954526019272071 0 0 0
247 1 -4.887099356908448 -6.021953189323031 8.942110680287636 0 0 0
15 2 -5.114370189300923 -8.781609757600563 11.534652382144031 0 0 0
128 2 -3.2576442539777655 -7.531381285788007 10.348081000566614 0 0 0
135 1 -4.889520306486942 -6.112425147267251 11.713375415761792 0 0 0
641 1 -1.5995754815218257 -6.148752987928659 11.521794523344626 0 0 0
229 2 -7.869563987038281 -6.023209802222645 6.238502437665695 0 0 0
609 2 -2.0523419257561843 -11.847007495856069 5.985303519401263 0 1 0
132 2 -9.357457253680291 -4.664133728175457 -10.394940619902851 0 0 0
155 1 -10.767824167264834 -3.2353085779747563 -9.009845541875809 0 0 0
139 1 -10.714658678277136 -3.023593939567939 -11.743844044984447 0 0 0
134 2 -6.246602451180289 -4.756728549227546 -10.516488157076033 0 0 0
157 1 -7.739845584116006 -3.38487931651493 -8.978757070344928 0 0 0
141 1 -7.722342047399046 -3.109545446828081 -11.700445292095889 0 0 0
159 1 -4.543150481030683 -3.5529867734302387 -8.967070046277021 0 0 0
136 2 -3.1943239836878643 -4.762199092266789 -10.77983306171977 0 0 0
665 2 -1.609915331172468 -3.4291968613855675 -9.32949129521113 0 0 0
259 1 -10.637026902574584 -0.09010811342829339 -11.575259756595196 0 0 0
140 2 -9.228654954538055 -1.7088977462189787 -10.326854208664855 0 0 0
261 1 -7.51878015358924 -0.34805604750558566 -11.579148999684044 0 0 0
142 2 -5.956317648385535 -1.9807191709254175 -10.08550676627446 0 0 0
263 2 -4.727222231686822 -0.4222660072523693 -11.768581444433512 0 0 0
144 1 -3.1335155947502855 -1.870912707279118 -10.45674305475329 0 0 0
785 2 -1.744691876803714 -0.46209719617427536 -8.98618500364594 0 0 0
650 1 -0.1844177442075872 -1.6814821399867221 -10.56976135211019 0 0 0
148 2 -9.38712878216181 -4.732153456124128 -7.525759703733998 0 0 0
171 1 -10.805362361023867 -3.3000443860580995 -6.079762848931154 0 0 0
150 2 -6.218227919894798 -4.868527790241451 -7.559805804228109 0 0 0
173 2 -7.751613990119245 -3.4211922722379993 -6.106925373446128 0 0 0
175 2 -4.313340703071942 -3.599164605943137 -6.204540675676369 0 0 0
152 1 -2.7307765926117322 -4.888876300858592 -7.727691288278855 0 0 0
275 1 -10.627883516848408 -0.27448582392431714 -8.835994197174287 0 0 0
291 2 -10.696466654158948 -0.44661320799081705 -6.149395376778956 0 0 0
156 1 -9.13806436033993 -1.8395490744883845 -7.432210738380756 0 0 0
277 2 -7.615320098945655 -0.4933972099603691 -8.805130918660149 0 0 0
158 1 -6.0831902739426855 -2.059408007963904 -7.42091303306004 0 0 0
293 2 -7.494168999599791 -0.5359128214993467 -5.968356141091282 0 0 0
279 1 -4.550559358700444 -0.4327746640486617 -8.87634492128304 0 0 0
295 2 -4.5552121547950275 -0.6213874360258006 -6.217661997521329 0 0 0
801 2 -1.684005714961522 -0.6703837496902014 -6.000251128289651 0 0 0
160 1 -2.9979149926673228 -2.0457658106857943 -7.524858782745248 0 0 0
666 2 -0.19030946816768146 -2.093060997215928 -7.616685935536697 0 0 0
658 1 -0.01417759473986851 -4.828406460058944 -7.799796808055986 0 0 0
164 1 -9.254806710827449 -4.771034622269833 -4.602849468849388 0 0 0
187 1 -10.654067763802027 -3.2858753604611475 -3.100477060318163 0 0 0
189 2 -7.6822287702990915 -3.2593946277887365 -3.226492917721141 0 0 0
166 1 -5.992061526746124 -4.741735448231188 -4.687228838464334 0 0 0
168 1 -3.0877126170964426 -4.932033264589819 -4.484037449374047 0 0 0
674 2 -0.1328019842016846 -5.044559325088023 -4.238137327509146 0 0 0
681 1 -1.439836244246313 -3.500512200989285 -5.8781275769195425 0 0 0
172 1 -9.154645725997698 -1.8581414437924713 -4.716052119004451 0 0 0
307 2 -10.403461908100034 -0.41018730610443577 -3.1364945676243967 0 0 0
309 1 -7.5860236357546045 -0.5295642688542662 -3.2671383291473264 0 0 0
174 1 -6.001925235000438 -2.072595470783936 -4.7071769491835305 0 0 0
311 2 -4.628177144479468 -0.5675963454214812 -3.3299880739275918 0 0 0
176 1 -3.169027932873484 -2.0505852442452652 -4.547355482419177 0 0 0
817 2 -1.7945405587670193 -0.5325807910278368 -2.981327865407304 0 0 0
682 2 -0.11162987947970371 -2.0089806556761385 -4.232738447361297 0 0 0
180 2 -9.119103000602506 -4.713413362167227 -1.5295879003666404 0 0 0
182 1 -6.176579131148114 -4.894711616718171 -1.7582966122653643 0 0 0
205 2 -7.349502935496781 -3.462645638214775 -0.185578783416578 0 0 0
191 2 -4.700377730297623 -3.429184040073434 -2.938371387410934 0 0 0
184 1 -3.2782827988404364 -4.865632751047472 -1.5035332125855185 0 0 0
207 1 -4.7723908412023635 -3.3367561294814942 -0.1600259598531809 0 0 0
697 2 -1.7959014015652568 -3.4849463016054965 -2.9072215482238186 0 0 0
690 1 -0.46016048823529937 -4.767970292590274 -1.1696728631870814 0 0 0
203 2 -10.772687084633995 -2.980804604572237 -0.30304683924098585 0 0 0
323 1 -10.469065180670414 -0.23827672908484257 -0.3210802909783478 0 0 0
188 1 -8.957438576337612 -1.858002601396897 -1.6251235891070246 0 0 0
325 1 -7.4825757340071375 -0.1361243837239487 -0.2239716976624131 0 0 0
190 1 -6.134292171228257 -1.8577954539325028 -1.6959687833965673 0 0 0
327 2 -4.723999703925526 -0.39985956182219756 -0.11340607855746647 0 0 0
192 1 -3.2961074812260187 -1.8873665294826678 -1.6440854524774025 0 0 0
698 1 -0.3687902407241954 -1.9324763075901683 -1.4153480863370116 0 0 0
833 1 -1.8663233096652951 -0.28499143250161585 -0.06561347526948876 0 0 0
196 1 -9.220988079513655 -4.527748666428706 1.2168199693763935 0 0 0
213 2 -7.838187968311053 -5.780483106180848 2.834396091531281 0 0 0
198 1 -6.184103226200477 -4.645202232509166 1.575090608451081 0 0 0
200 1 -3.433756147881573 -4.729957517624897 1.5514315167364638 0 0 0
706 1 -0.41438349913453937 -4.634445133214483 1.5855080059780335 0 0 0
713 2 -2.063259982391227 -3.291531568661298 0.01831738784621508 0 0 0
219 2 -10.617495079072562 -2.9691577610036832 2.6305288553286417 0 0 0
339 2 -10.352590331359297 -0.10436585034085409 2.4634387044232344 0 0 0
341 1 -7.629874175533149 -0.06705575944888775 2.5748032123700195 0 0 0
221 1 -7.744650702511214 -2.976684817791699 2.9219958613206334 0 0 0
204 2 -8.815627078427749 -1.7725021838113812 1.028862219122582 0 0 0
206 1 -6.2062148155472645 -1.7998987175568395 1.2432396435607902 0 0 0
208 1 -3.415408684971819 -1.764404587646797 1.3616172992068483 0 0 0
223 2 -4.8349704816082095 -3.0926204575116283 2.8011093091157817 0 0 0
343 1 -4.898214142839461 -0.10267603749618451 2.6879338105895676 0 0 0
714 2 -0.4832758060038747 -1.8536466654876258 1.3286474872296001 0 0 0
849 2 -2.13972774640783 -0.17582093233048943 2.696022562215139 0 0 0
211 1 -10.706850962995306 -5.852242447453215 3.13050447336121 0 0 0
212 2 -9.14052821374781 -4.257515802990914 4.506389227866006 0 0 0
730 2 -0.6343363130903356 -1.5351840839596491 4.426583754531974 0 0 0
214 1 -6.3033063673419685 -4.469117539382959 4.61986225736912 0 0 0
216 2 -3.518676686882713 -4.438712414141929 4.691325920805107 0 0 0
729 1 -1.9798271307203297 -3.1260590179709817 3.0152868157227455 0 0 0
722 2 -0.4768824298982935 -4.484456804869706 4.565429467198262 0 0 0
220 2 -9.106004340671346 -1.420454146025784 4.418604394714808 0 0 0
235 1 -10.72008270755285 -2.7313693513261104 5.923783576960285 0 0 0
222 2 -6.260160518067053 -1.480559549994544 4.211754278463361 0 0 0
224 1 -3.516299313129096 -1.5614792684852585 4.351421269946118 0 0 0
745 1 -1.9994116741524055 -2.968918668306229 5.936829545855625 0 0 0
359 1 -4.964025501906015 -0.013177190962834954 5.890590997181411 0 0 0
228 2 -9.28745628208769 -4.053783952823859 7.344810292923449 0 0 0
230 2 -6.308271260819055 -4.319949662459141 7.585252571655278 0 0 0
245 1 -7.98383362863376 -5.677943612528288 8.835135659309458 0 0 0
762 2 -0.12478864792486123 -1.5054367357185936 10.255114319802075 0 0 0
232 1 -3.409266499494566 -4.54424548225975 7.421331296247076 0 0 0
738 2 -0.38437430374031284 -4.310097554323051 7.389075344709121 0 0 0
236 1 -9.225281580212588 -1.3446021263934063 7.6056038079782375 0 0 0
237 1 -7.729313263281149 -2.7701974005389642 6.0002834030963905 0 0 0
238 1 -6.295531965737131 -1.4237577378448703 7.638861068881068 0 0 0
357 2 -7.697337144510643 -0.0330695647169226 6.137027144005996 0 0 0
239 2 -4.889433759615607 -2.7452571543655253 6.144647866303432 0 0 0
240 1 -3.4181490556359466 -1.4197197560540111 7.540304784358023 0 0 0
256 1 -3.272159643001904 -1.544261570092371 10.402716831836868 0 0 0
746 1 -0.4132480790988429 -1.4215633750234424 7.309719070394451 0 0 0
761 2 -1.9927175341949313 -2.904482987059621 8.801802779549275 0 0 0
865 2 -2.209856684673173 -0.15656708110549114 5.9667308855377925 0 0 0
131 1 -10.810559861125705 -5.921946731287338 11.802711132638072 0 0 0
243 2 -10.684296939489652 -5.696852658234181 8.924111459380425 0 0 0
244 2 -9.175856116839972 -4.345064641314447 10.561300867094808 0 0 0
246 1 -6.393737924944932 -4.505890590238504 10.4094197867009 0 0 0
253 1 -7.852832868087664 -2.964102516155933 9.000175251278145 0 0 0
248 2 -3.447671853267765 -4.519520357639451 10.286534307508932 0 0 0
143 1 -4.830834285090916 -3.1756250074295003 11.879971067544622 0 0 0
754 2 -0.20801209130738202 -4.4084101803756495 10.205360796138308 0 0 0
649 1 -1.7017354047820137 -3.183990229387052 11.653479202250473 0 0 0
251 1 -10.688497075968705 -2.818969671038602 9.021472712701204 0 0 0
252 1 -9.164330010773966 -1.5150999316067781 10.637638409361132 0 0 0
769 2 -1.7711205933439478 -0.36399513082662116 11.865934125284811 0 0 0
254 2 -6.36927441634367 -1.6810037665358704 10.43179211134807 0 0 0
375 2 -4.775677621689128 -0.12214526443859398 9.10965023590746 0 0 0
255 1 -4.853883752626009 -3.0026497186966785 8.991841459326578 0 0 0
227 2 -10.833769331421127 -5.8735498776983 6.003466393378901 0 0 0
260 1 -8.945263803821138 1.2409011147728632 -10.11261476013193 0 0 0
267 1 -10.364204376329301 2.860272118991442 -11.570181369028425 0 0 0
258 2 -11.653468296725247 1.5863918794717955 -10.024219811841531 0 0 0
269 1 -7.403190822334116 2.8279091838973076 -11.507253015402025 0 0 0
262 2 -6.076604464744035 1.1541497659079036 -10.174975707653482 0 0 0
264 2 -3.155867850022919 1.2025729171616881 -10.312842015486677 0 0 0
271 2 -4.6357759736264805 2.8833624076335584 -11.686567315191773 0 0 0
770 1 -0.36986002791617834 1.2113449848970934 -10.366590558693604 0 0 0
387 2 -10.345171091031592 5.774947889859222 -11.694933167755083 0 0 0
268 1 -8.768434896815032 4.459504659038956 -10.155031653841913 0 0 0
270 2 -5.969575988804365 4.527603902327074 -10.155306878380198 0 0 0
389 1 -7.3885777291707555 5.8795435391544775 -11.714535156137815 0 0 0
272 1 -3.175952252718146 4.456831907593319 -10.236006005498613 0 0 0
777 2 -1.6933432925098626 2.919818780964201 -11.689417733020612 0 0 0
778 1 -0.37354587115653426 4.486444018664869 -10.187616331599033 0 0 0
276 1 -8.936436767903789 1.050899996340567 -7.328615411353677 0 0 0
283 1 -10.146682723158639 2.9833008637316887 -8.654867695204864 0 0 0
299 2 -10.060816064448048 2.9181615280939788 -6.056599427394125 0 0 0
274 1 -11.80870483702943 1.5326250978864682 -7.3100976105564595 0 0 0
285 2 -7.545462576042432 2.778868004032016 -8.751277323233271 0 0 0
278 1 -6.058250134706955 1.069633254331768 -7.416574261857383 0 0 0
301 2 -7.380896645612723 2.696087668228984 -6.042009127551129 0 0 0
280 1 -3.12771814684223 1.0656716118729397 -7.388173219071725 0 0 0
897 2 -1.793405451964236 5.905340795483423 -11.813034360692786 0 0 0
287 2 -4.535750672359989 2.8029317287292796 -8.670543136036823 0 0 0
793 2 -1.7180810543320755 2.806542569161705 -8.697073229789279 0 0 0
809 1 -1.829825830836378 2.837768302365101 -5.995382656239939 0 0 0
786 1 -0.4236397613952057 1.0620671946665898 -7.478619601717518 0 0 0
403 2 -10.300478311714965 5.718364030641511 -8.721181099675842 0 0 0
286 1 -5.905109598134965 4.429596017788104 -7.343949640012899 0 0 0
284 1 -8.589733648462389 4.585825818057382 -7.377096679892542 0 0 0
288 1 -3.151204696602341 4.514160822496131 -7.387197965104527 0 0 0
794 2 -0.3673186139313605 4.56959375116919 -7.251417567872794 0 0 0
266 1 -11.869192710240554 4.3791774309126525 -10.0790770669784 1 0 0
315 1 -10.08088406940071 2.9360491857461692 -3.252817440350645 0 0 0
292 1 -8.9508226417279 1.0578820294393454 -4.699090445979373 0 0 0
290 2 -11.654768969328847 1.5261480132639256 -4.600754651103793 0 0 0
317 2 -7.540590094324076 2.6080462745421658 -3.2436171729365477 0 0 0
294 1 -6.023313218149753 0.9811876979729427 -4.73628294685613 0 0 0
319 1 -4.679404644514279 2.6594535889746047 -3.259454154777038 0 0 0
296 1 -3.1686551257861595 0.9348826909171856 -4.67574843387795 0 0 0
802 2 -0.4821213605815188 1.2097055312930318 -4.67829835357774 0 0 0
825 2 -2.0785253626415483 2.7523273892702753 -3.200291285279257 0 0 0
419 2 -10.128011051695188 5.90156576471413 -5.9383162904844875 0 0 0
298 1 -11.670731031109295 4.363153001419788 -4.6753346635326745 0 0 0
300 1 -8.624328370792256 4.438725816927946 -4.602494668856879 0 0 0
302 2 -5.946243839324533 4.432846977267342 -4.642618813747321 0 0 0
304 1 -3.266592338209614 4.528032866497892 -4.6090501069797245 0 0 0
810 1 -0.49310403246537066 4.45783614419092 -4.528495074137232 0 0 0
331 1 -10.343806191270843 3.0017286263199057 -0.3648516080461015 0 0 0
306 1 -11.635575763000594 1.4680287395200535 -1.8877067862747576 0 0 0
308 1 -8.975259063121078 1.1428186333162853 -1.857916299499128 0 0 0
333 1 -7.429361178244437 2.6310423048592186 -0.5375507322110894 0 0 0
310 2 -6.079392249531241 0.9401842417079808 -1.9786920479831633 0 0 0
335 1 -4.769651658367828 2.595509400115444 -0.5582379279622947 0 0 0
312 1 -3.311344721123989 0.9755430076092135 -1.8250998430230334 0 0 0
841 1 -1.9123180036768945 2.6512403926873906 -0.42179164776762984 0 0 0
818 2 -0.42845126245292753 1.0625351645791856 -1.5631479915359714 0 0 0
314 2 -11.578697911026488 4.3890654836863465 -1.94883069752729 0 0 0
451 1 -10.37246920650563 5.789697266467795 -0.34597701124852415 0 0 0
316 1 -8.6969068740068 4.511640400745707 -1.8476499724098525 0 0 0
318 2 -5.990369817982325 4.324763944772878 -1.7531454238803317 0 0 0
320 1 -3.2853934921197223 4.426501826418685 -1.8175604506420608 0 0 0
961 2 -1.965814733246041 5.861683422840463 -0.16126744702925366 0 0 0
826 2 -0.5884303077134402 4.343091077168644 -1.5981926748244704 0 0 0
303 2 -4.480460987552906 2.641344025027558 -5.937603075686245 0 0 0
347 1 -10.150173144810129 2.8007450127875324 2.478513506022483 0 0 0
324 2 -8.9668466891041 1.4201935799856855 0.8644520314326176 0 0 0
349 1 -7.573298369968796 2.8524125076406737 2.5730895937595246 0 0 0
326 2 -6.088350663423778 1.4979306418845462 1.1767830154019632 0 0 0
351 1 -4.75859309661257 2.8593103185990443 2.78346363772358 0 0 0
328 1 -3.40936833795587 1.33550272713608 1.1985905740422136 0 0 0
834 2 -0.657013816826762 1.517652423901778 1.3638502259149674 0 0 0
857 1 -2.1017251026518107 2.807862735078299 2.8549852817640944 0 0 0
330 2 -11.850059200244761 4.082764779192593 1.280648966088914 0 0 0
467 1 -10.19078432655442 5.470352746136602 2.3648516628344245 0 0 0
332 2 -8.692824186833167 4.327599888617095 0.7452417935373974 0 0 0
469 2 -7.467561376320984 5.726500421549573 2.520405323468481 0 0 0
334 1 -6.092974532913539 4.2278714392699674 0.9389308884320361 0 0 0
336 2 -3.3928912522731216 3.9867064987460767 0.9571083277117273 0 0 0
471 2 -4.726529170474277 5.5513978800086345 2.553362981363117 0 0 0
842 1 -0.6421509909530138 4.2514795230993325 1.276010369767012 0 0 0
977 2 -2.0622107538456533 5.622852641535992 2.7762437256846897 0 0 0
363 2 -10.40247492107028 2.8536275771827717 5.871727898174946 0 0 0
338 2 -11.730058771299047 1.5363530440497288 3.966821404181308 0 0 0
355 1 -10.554479263976523 0.12632129705107523 5.853774684648758 0 0 0
340 2 -8.901599388262984 1.3898843365876867 4.205484106128845 0 0 0
342 2 -6.179075647003288 1.4613075702004874 4.224046962841238 0 0 0
365 1 -7.617109910948233 2.866454591591927 5.882055947025039 0 0 0
344 1 -3.484604572848856 1.2160263533895688 4.269573596308066 0 0 0
367 1 -4.877478972572313 2.7843139008891886 5.8335364744740685 0 0 0
850 1 -0.6004539425602925 1.2112887063706166 4.348328646476854 0 0 0
873 2 -2.229304454878038 2.62560439187193 5.680176511291389 0 0 0
483 2 -10.430546774340067 5.618185393388647 5.849609827931556 0 0 0
346 1 -11.6752903897998 4.169402904847241 3.994567953981278 0 0 0
350 1 -6.194209139944021 4.324389899473071 4.296633811455721 0 0 0
348 2 -8.931268724531039 4.251761369254439 4.160147392128589 0 0 0
352 1 -3.4262932277368514 4.407144997951811 4.5083669619455495 0 0 0
858 2 -0.6142072477298374 4.216452365006511 4.285232402243948 0 0 0
322 1 -11.851100087547291 1.4502052145517177 1.115549340658161 1 0 0
356 1 -9.085773487991467 1.5061525840108034 7.558350720269703 0 0 0
354 2 -11.787283113872634 1.5309381611284163 7.606290829195662 0 0 0
358 2 -6.166390746199622 1.4582731006058798 7.537808626470685 0 0 0
360 1 -3.377580068478745 1.392974312460065 7.5281360671308475 0 0 0
890 2 -0.2962424528987644 4.298657359245778 10.432070465623058 0 0 0
866 1 -0.5300097714365144 1.369305696781438 7.206449639651907 0 0 0
364 2 -8.984398802110638 4.207014737163812 7.693429616531761 0 0 0
362 1 -11.833367694998413 4.180060438483058 7.693476776569004 0 0 0
366 1 -6.221616277187073 4.203892826906689 7.692946940874669 0 0 0
485 2 -7.462516121341745 5.671512391029455 6.034684017107307 0 0 0
368 1 -3.3291667328128614 4.130997840646191 7.394028056406564 0 0 0
487 1 -4.850908154105293 5.749942360529356 6.113789834242945 0 0 0
874 2 -0.5212928988599754 4.224657706494968 7.15369573370357 0 0 0
993 2 -2.1778395961876704 5.890449245157326 6.027974197380757 0 0 0
1009 1 -1.8311369646485238 5.701225726374642 8.828697112194877 0 0 0
379 1 -10.358092999309255 2.706731825063134 9.367206715822737 0 0 0
371 1 -10.568965644013387 0.06445604924249862 9.233243795228708 0 0 0
372 2 -8.936563211428648 1.2576496094832867 10.982596869216362 0 0 0
381 2 -7.582545274084919 2.7223349140825994 9.3537389607259 0 0 0
374 1 -6.0150551824968455 1.3151653837800967 10.735020409471796 0 0 0
383 2 -4.6769529194518595 2.8061601039651882 9.186384701966945 0 0 0
376 1 -3.184545909450896 1.362772093977118 10.58021997404957 0 0 0
889 2 -1.8429220426318675 2.8525534758408244 8.960509709518558 0 0 0
881 2 -1.8651583312101083 0.010824411159036049 8.935055469657494 0 0 0
882 1 -0.3517349868160117 1.367662138123876 10.448100772296248 0 0 0
378 2 -11.723521408483101 4.286235785449699 10.65256268748517 0 0 0
499 1 -10.307581973054349 5.657350669630899 9.208988578038086 0 0 0
380 1 -8.843634284836018 4.258899087955621 10.774000200406531 0 0 0
382 1 -5.940569070977558 4.359528142818431 10.625356648092461 0 0 0
501 2 -7.568170816529417 5.734250931534915 9.294951546297517 0 0 0
503 2 -4.6358366739285595 5.68097162165589 8.886865352241061 0 0 0
384 1 -3.2214440564865807 4.334304188062198 10.589415942652051 0 0 0
373 1 -7.720903367199293 0.03619583902143537 9.153042432885421 0 0 0
388 2 -8.967976939951983 7.310860594807494 -10.284011022426226 0 0 0
395 1 -10.559177986760188 8.682333032956937 -11.741693449247732 0 0 0
386 1 -11.86121012079738 7.136617178509809 -10.17639187012897 0 0 0
390 1 -6.017110145627495 7.534353270518394 -10.32399378199008 0 0 0
397 2 -7.481726939152301 8.727336573919045 -11.843810862654646 0 0 0
391 2 -4.627417684720464 6.079157551087036 -11.693127801698928 0 0 0
392 1 -3.091241651766855 7.530021394477042 -10.390810234843896 0 0 0
431 2 -4.6839015991067745 9.575468465629086 -6.256413326184576 0 0 0
898 1 -0.29121188825870226 7.452669022858447 -10.46201199302748 0 0 0
922 1 -0.12988058861472251 10.522268484400504 -7.63271018014829 0 0 0
396 2 -9.189482663749308 10.282447373622682 -10.49258860718272 0 0 0
398 1 -6.313784754935759 10.535629492819874 -10.569541684036071 0 0 0
413 1 -7.630806693652177 9.01654006550163 -9.008434392606901 0 0 0
415 2 -4.590918991276011 9.127692792964936 -9.10820303022377 0 0 0
400 1 -3.055497610309636 10.428016990863329 -10.616454520226261 0 0 0
921 2 -1.6222840408252148 9.08281730283711 -9.057420066721766 0 0 0
906 1 -0.2062648950169216 10.379560695472069 -10.703713470190351 0 0 0
416 1 -2.837132460205775 10.613343687457613 -7.465677579120325 0 0 0
404 2 -8.862311181022626 7.723835545989724 -7.381234921775485 0 0 0
405 2 -7.229911766978485 6.164602513286773 -8.68810567604159 0 0 0
406 1 -5.907110035815013 7.8341487260838285 -7.417728877151083 0 0 0
408 1 -3.1068430244650203 7.910829778917993 -7.391763101934391 0 0 0
423 2 -4.504264663089308 6.205883465728503 -6.128093452208365 0 0 0
407 1 -4.494323219853558 6.221273817003547 -8.75417858214656 0 0 0
913 2 -1.8240385431544979 6.1591833151132995 -8.812654872788551 0 0 0
914 1 -0.2432944707356639 7.667981265882591 -7.498260629456668 0 0 0
412 1 -9.135894422930457 10.624769409547344 -7.542346225317749 0 0 0
411 2 -10.658110716892155 8.931454153008529 -8.759389555328738 0 0 0
427 1 -10.708310156756625 9.033233767060405 -5.998289878755185 0 0 0
414 2 -6.379619757216046 10.786646868279561 -7.9133477262919465 0 0 0
429 1 -7.476150414912882 9.309537670023982 -5.993457730880388 0 0 0