LAMMPS data file via write_data, version 2 Aug 2023, timestep = 10000, units = metal

1024 atoms
2 atom types

-11.855996948325103 11.855996948325103 xlo xhi
-11.855996948325103 11.855996948325103 ylo yhi
-11.855996948325103 11.855996948325103 zlo zhi

Masses

1 55.847
2 26.982

Atoms # atomic

27 2 -10.658013196607753 -9.110672639556709 -8.919091913189284 0 0 0
4 2 -9.158416512668628 -10.470366747484377 -10.529815706471187 0 0 0
11 1 -10.759582744246948 -8.958428656587376 -11.747736148943073 0 0 0
6 1 -6.283336623200468 -10.631602015077755 -10.605901479832369 0 0 0
29 1 -7.784869851457922 -8.998028704209503 -9.052160707275327 0 0 0
8 1 -3.4279502848542176 -10.509537756442608 -10.477423079655138 0 0 0
31 2 -5.028482195301034 -9.146219844297308 -8.929349867266895 0 0 0
514 1 -0.4691820010416491 -10.570923576254849 -10.340846372542956 0 0 0
537 2 -1.9388197989606262 -9.114540733590067 -9.02523372949938 0 0 0
12 2 -9.26903786017607 -7.316880024266006 -10.37256175460989 0 0 0
673 2 -1.9290482104946127 -5.928596157375455 -5.996658633246001 0 0 0
14 2 -6.381838281765545 -7.273605150632706 -10.298633553690776 0 0 0
16 2 -3.4292106210041484 -7.451663600981131 -10.356759732561091 0 0 0
657 2 -1.9008886852813431 -5.940149853481527 -8.926685769983957 0 0 0
522 2 -0.3444091788110841 -7.522855258445861 -10.37817678670322 0 0 0
20 1 -9.15891760482547 -10.610106183076377 -7.494287998980542 0 0 0
43 2 -10.619192246650528 -9.049121762312287 -6.107380124903917 0 0 0
22 1 -6.358192255120656 -10.620098085449378 -7.477893760293467 0 0 0
45 2 -7.719406879821226 -8.979016455153781 -6.228543466422914 0 0 0
24 2 -3.499817204802148 -10.618576766826196 -7.441768646044887 0 0 0
530 1 -0.6006105369521563 -10.533979983233113 -7.416804779447155 0 0 0
28 2 -9.143986225016347 -7.325381649231311 -7.571795122921129 0 0 0
163 1 -10.748203921414138 -5.966504618499731 -6.0596201208026645 0 0 0
30 1 -6.314879595308688 -7.418158246908994 -7.630961962950009 0 0 0
47 1 -4.854356622046301 -8.932214208399717 -6.094866444100241 0 0 0
167 2 -4.781769787358369 -6.113380181230125 -6.214950750218912 0 0 0
32 1 -3.3296288826566007 -7.507407394483239 -7.610821272513596 0 0 0
553 2 -2.061534389478099 -8.92548487887874 -6.018682588786133 0 0 0
538 1 -0.5360460530074773 -7.598666676209137 -7.455651839130388 0 0 0
641 1 -1.898732656807592 -5.929872965824402 -11.783927956884774 0 0 0
13 1 -7.749246750834182 -8.768990031374084 -11.835894734433342 0 0 1
36 1 -9.167451838553822 -10.604047925927144 -4.765308956017275 0 0 0
59 2 -10.585451958153818 -9.116041053119382 -3.13051546117981 0 0 0
38 2 -6.266298891516981 -10.41184938691533 -4.732989990214338 0 0 0
53 2 -7.799128106818529 -11.825535759201623 -3.0188510348620343 0 0 0
61 1 -7.708293163033992 -8.9958661307154 -3.184770913075967 0 0 0
40 1 -3.3856591140534977 -10.441542794668301 -4.510922048419219 0 0 0
55 2 -4.917364345632042 -11.7782788143743 -3.0934844804751767 0 0 0
546 1 -0.582604135277625 -10.420150817183556 -4.454272352063932 0 0 0
44 2 -9.168978972494491 -7.409122960523539 -4.584359613603425 0 0 0
179 2 -10.610939046853344 -6.028111994793661 -3.070324920549619 0 0 0
181 1 -7.749935366504819 -5.979086325727827 -3.1002315039476596 0 0 0
46 2 -6.301356302701904 -7.387266147133069 -4.645799690572338 0 0 0
48 1 -3.404479007209692 -7.418563683416118 -4.550234130186117 0 0 0
63 1 -4.951890541424533 -8.911673596477973 -3.0740629524103067 0 0 0
183 2 -4.880221775593008 -5.973953220648595 -3.0667854074766283 0 0 0
554 1 -0.5519770678028625 -7.531181096578704 -4.492366972154739 0 0 0
689 2 -2.009881393398178 -6.08181367779626 -3.011829454359462 0 0 0
52 2 -9.157011910695871 -10.345412215176092 -1.2910313065427552 0 0 0
54 2 -6.332263406329811 -10.265585829357583 -1.3588898697361016 0 0 0
56 1 -3.498360821791884 -10.348071474188957 -1.4582965394581415 0 0 0
569 2 -2.1025664996462288 -8.950785702597518 -2.9925389349727425 0 0 0
562 1 -0.5470808471569785 -10.339766493458933 -1.4132589106400426 0 0 0
561 2 -1.9866961281766817 -11.8297833426887 -2.922982526115956 0 0 0
60 1 -9.206290607848112 -7.580522510956429 -1.5723080044672617 0 0 0
62 2 -6.423338658170231 -7.439051174663115 -1.5587458727879462 0 0 0
64 1 -3.46972572660695 -7.432665086375397 -1.5019607533833015 0 0 0
570 1 -0.5644634564512768 -7.510410019233491 -1.4509895439237261 0 0 0
705 2 -2.056374907060763 -6.067799791158239 -0.05546015216073576 0 0 0
195 2 -10.65974549666628 -6.202514143612718 -0.0936142295466112 0 0 0
197 1 -7.812144265849927 -5.991673556494103 -0.030023576717574482 0 0 0
68 1 -9.192926925922896 -10.296703206997517 1.7993772526664276 0 0 0
75 1 -10.662696064731133 -9.008594094298871 0.14930046093691285 0 0 0
70 1 -6.336499774477766 -10.318455660888358 1.7625446902250974 0 0 0
69 2 -7.83477738978114 -11.806811701546675 0.40701267877295155 0 0 0
72 1 -3.4634997189257444 -10.208215639750902 1.7591015018991127 0 0 0
71 2 -4.87894181624357 -11.607934639531479 0.32020666525638825 0 0 0
578 1 -0.5882489556770938 -10.26995907386436 1.6881911115036106 0 0 0
577 1 -2.0358972583925135 -11.70756270553652 0.2041005540399003 0 0 0
585 2 -2.114971071317764 -8.97628086778474 0.06336943285208609 0 0 0
76 1 -9.332723223900631 -7.375912962745085 1.604567065229831 0 0 0
593 2 -2.116516681712553 -11.77960165788012 3.0271326741270452 0 1 0
78 1 -6.321928814418071 -7.249222960437745 1.6790780209323368 0 0 0
77 2 -7.798276470774182 -8.73942707130773 0.3540055575028727 0 0 0
602 1 -0.5550584141217616 -7.360294515531989 4.582767428223565 0 0 0
199 2 -4.9314121912097795 -6.029792402101082 0.04833101426194007 0 0 0
80 1 -3.396341513285975 -7.353194907643018 1.6163337304230996 0 0 0
79 1 -4.9263601921153795 -8.805426753908044 0.13876422758347806 0 0 0
586 1 -0.6629787195891748 -7.515301780163215 1.516481591395744 0 0 0
84 2 -9.160719496701438 -10.349831492588608 4.542625072371307 0 0 0
86 2 -6.380349355789176 -10.231126559996975 4.587902434151327 0 0 0
88 1 -3.5957721568868033 -10.308261577125613 4.5862749827591935 0 0 0
594 1 -0.630740258301629 -10.330534277538135 4.503874984039445 0 0 0
91 1 -10.710855924110344 -8.778050877132607 3.169771356933802 0 0 0
92 2 -9.278067782111775 -7.2847858299081505 4.5662344918399 0 0 0
93 1 -7.813237481576963 -8.738442091061957 3.1676121747851966 0 0 0
94 1 -6.386502754921103 -7.170476399334856 4.557416642662437 0 0 0
96 1 -3.448384435365731 -7.252185927622255 4.530243847226613 0 0 0
95 2 -4.959981835879617 -8.690367781699292 3.0378572569666225 0 0 0
601 2 -2.05842197314389 -8.794589663075886 3.2945014940321657 0 0 0
100 1 -9.240907152991753 -10.434701020326106 7.5316376527857525 0 0 0
107 2 -10.69664269807936 -8.881484759247156 6.097101443822733 0 0 0
102 2 -6.341250919890003 -10.300358560493208 7.474451023557403 0 0 0
104 1 -3.551690913927914 -10.365345671128594 7.427926445935036 0 0 0
610 2 -0.5052582570598013 -10.33417657674374 7.366417122654928 0 0 0
108 1 -9.354705374184903 -7.377069464709714 7.581127415192122 0 0 0
109 1 -7.812748133890545 -8.801295956716991 6.043540916827545 0 0 0
110 1 -6.387894916743164 -7.254875986185498 7.604778395313784 0 0 0
125 2 -7.881343768660848 -8.808398825724941 8.91694723834687 0 0 0
111 2 -4.87913708229571 -8.564057441186016 6.09660002780568 0 0 0
112 1 -3.5218848707051533 -7.306962387203828 7.633706269293198 0 0 0
617 1 -2.06374402290752 -8.804293777352633 6.065994781404849 0 0 0
618 2 -0.42133670405401036 -7.41786108821517 7.403902986537709 0 0 0
116 1 -9.16281890631854 -10.43977255646593 10.408295653087091 0 0 0
123 1 -10.777251293237702 -8.928568591446362 9.065716700712063 0 0 0
118 2 -6.319675438032657 -10.501061139159251 10.416562750142397 0 0 0
120 1 -3.487733859382657 -10.485145173815262 10.428587498220786 0 0 0
513 2 -1.8962581074596825 -11.790473119668267 11.75812510399474 0 0 0
633 2 -2.1355113384449615 -8.912529733008697 8.94207699913391 0 0 0
626 1 -0.4581056304046335 -10.431017539387172 10.232537864546055 0 0 0
124 2 -9.33444581600966 -7.4663501959256555 10.504677264490049 0 0 0
126 2 -6.400697665080592 -7.201738707626083 10.386464123816811 0 0 0
115 2 -10.636627992090977 -11.840891026353686 9.06287314138187 0 1 0
15 2 -4.9203761498121175 -8.875929391340925 11.836982477584513 0 0 0
127 1 -4.995462119535203 -8.862606240733838 9.05764969193718 0 0 0
128 2 -3.4212451095754153 -7.2995346609702745 10.426461527837517 0 0 0
521 1 -1.9357912535498458 -8.894615422278276 11.848836581703633 0 0 0
634 2 -0.43647196793281684 -7.474198830021757 10.440482610110726 0 0 0
737 2 -2.098334397328423 -5.960533899518697 6.236589740986089 0 0 0
609 2 -2.038774374616834 -11.789764231044963 5.9527304807588415 0 1 0
132 2 -9.357791133393572 -4.335315848468549 -10.284565749963937 0 0 0
155 1 -10.874986493546187 -3.0188957679204607 -8.895789008064359 0 0 0
139 1 -10.88543985298512 -2.9512815858335757 -11.721515004241091 0 0 0
131 1 -10.799415208954786 -5.898936473713882 -11.77146836578971 0 0 0
134 2 -6.356167300265474 -4.333568772663385 -10.333670781213774 0 0 0
149 1 -7.847730510197388 -5.781206209326968 -8.958411356047575 0 0 0
133 1 -7.862721133368301 -5.807892851544263 -11.788484439629741 0 0 0
136 2 -3.4284862949540567 -4.301663581530866 -10.450668622148017 0 0 0
151 1 -4.830190661007508 -5.830798401498523 -9.045881111948386 0 0 0
159 1 -4.796314480468333 -2.981790254500959 -8.864505596586044 0 0 0
135 1 -4.877053738898054 -5.816045855453691 -11.809776930996472 0 0 0
642 2 -0.38623094029076654 -4.383731355745358 -10.371014935769283 0 0 0
666 2 -0.31997789782291214 -1.676233466386622 -7.4662556230015324 0 0 0
140 2 -9.394197462023275 -1.4040500683975345 -10.184317647158666 0 0 0
259 1 -10.979167045742086 -0.059439891215611725 -11.705096758560925 0 0 0
141 1 -7.902058076049688 -2.863180430714878 -11.722040108440769 0 0 0
142 2 -6.218084075434496 -1.491904554532502 -10.042438326756105 0 0 0
261 1 -7.8064243930130335 -0.12880662172695748 -11.71676795747366 0 0 0
144 1 -3.2906208491456934 -1.4049764268389129 -10.38550039078287 0 0 0
143 1 -4.9703299694291605 -2.8815252603206587 -11.818162641711565 0 0 0
263 2 -4.997241879353607 -0.09636573722922069 -11.834485565004755 0 0 0
650 1 -0.28447984838769896 -1.53534505670588 -10.254193884023248 0 0 0
769 2 -1.5999966185558694 -0.1456127815501117 -11.802193535089584 0 0 0
148 2 -9.413070715362666 -4.395698341690733 -7.408757228591909 0 0 0
171 1 -10.906032433684521 -3.0496125642533416 -5.953100971128534 0 0 0
157 1 -7.83610312410335 -2.9690040606515704 -8.866467370101432 0 0 0
165 1 -7.78326336799728 -5.86803473905316 -6.112515864472266 0 0 0
150 2 -6.199326320792627 -4.418148636769439 -7.466280826390007 0 0 0
173 2 -7.835691160921812 -2.9803586410451106 -6.034981442687279 0 0 0
175 2 -4.640373482418721 -2.929257904216336 -5.9838545742911835 0 0 0
152 1 -3.295450534430845 -4.504127624510951 -7.405174535138415 0 0 0
665 2 -2.037767538485007 -2.9415863360380285 -8.847991060165288 0 0 0
658 1 -0.3892742723598284 -4.435489604558919 -7.458549313127313 0 0 0
291 2 -10.95714116196527 -0.2421988729771296 -6.0833045357711475 0 0 0
275 1 -10.907488915338496 -0.08733024910158581 -8.796077117508233 0 0 0
156 1 -9.353856027853325 -1.526615920995199 -7.383027040484139 0 0 0
158 1 -6.274515417596942 -1.5192005743745147 -7.31437048995219 0 0 0
277 1 -7.822216577163352 -0.0869579135686247 -8.801301529860272 0 0 0
293 2 -7.832806923832966 -0.08073575675183675 -6.018914635658793 0 0 0
785 2 -1.8356383541292178 -0.01887206031186634 -8.835997121804478 0 0 0
160 1 -3.2548755963971057 -1.431295006959678 -7.313042353474293 0 0 0
295 2 -4.809982216502933 -0.03246554815586892 -6.013158643334046 0 0 0
147 1 -10.796429012971918 -5.909037490416401 -8.901934841728767 0 0 0
164 1 -9.29086103563787 -4.47698872086008 -4.585597337188112 0 0 0
187 1 -10.781234444248629 -3.073991513154996 -3.049068328525935 0 0 0
166 1 -6.210176062956644 -4.442858013365067 -4.624568965775771 0 0 0
189 2 -7.84252333055162 -3.1136207176931174 -3.140384081122766 0 0 0
168 1 -3.4177581633772944 -4.556503569812079 -4.491769958805296 0 0 0
191 2 -4.869115026115269 -3.041760042266647 -3.075208996724267 0 0 0
674 1 -0.4304975241046905 -4.656498921963728 -4.370189755179968 0 0 0
697 2 -1.972727249585916 -3.1770327894553825 -3.020965308190208 0 0 0
681 1 -1.802933472282215 -3.0044553041539204 -5.842582102790334 0 0 0
172 1 -9.314425303054847 -1.5245123728063625 -4.551402367184501 0 0 0
307 2 -10.786198134076884 -0.2213677125574542 -2.987275057140714 0 0 0
309 2 -7.874726691359724 -0.1964010181068345 -3.026463936060327 0 0 0
174 1 -6.321177598471066 -1.5622023331357169 -4.541217779324187 0 0 0
176 1 -3.334886004077875 -1.5146614005358698 -4.412195317372417 0 0 0
311 2 -4.8116940519708695 -0.11702311643826592 -3.0968658805724893 0 0 0
682 2 -0.3458642214022328 -1.4879318894528448 -4.161316201524579 0 0 0
801 2 -1.72062987809023 -0.10797625801183372 -5.84834580664259 0 0 0
180 2 -9.25338427526914 -4.534465464486357 -1.4991216958313238 0 0 0
182 1 -6.286289603697709 -4.493536744090685 -1.573362657185977 0 0 0
205 2 -7.755514201457236 -2.9850505412994512 -0.1276142636978976 0 0 0
184 1 -3.423022336279251 -4.578847865767822 -1.5524401062386193 0 0 0
207 2 -4.835298350977575 -3.113773406412545 -0.11873331503297926 0 0 0
713 2 -1.9295046805938596 -3.1009771026379487 -0.06728830180822819 0 0 0
690 1 -0.5415854618785999 -4.693557817623785 -1.4898051507197538 0 0 0
203 2 -10.927343313076825 -2.915596364391276 -0.1725932612391852 0 0 0
188 1 -9.25592292606321 -1.6435105360612756 -1.58188849024353 0 0 0
817 2 -1.9100498230335585 -0.12349051781947239 -2.7142637909430722 0 0 0
325 1 -7.81348113336832 -0.1413744127970084 -0.0498979901373786 0 0 0
190 1 -6.299988176776419 -1.6396700160931938 -1.6362201780147323 0 0 0
327 2 -4.94459610308687 -0.2866786321656531 -0.01703937939584832 0 0 0
192 1 -3.407476640299475 -1.6794416683569096 -1.550347033047547 0 0 0
698 1 -0.4239411310489507 -1.7122812285438878 -1.451252734531233 0 0 0
196 1 -9.40104225178575 -4.452875981957575 1.3337276677183016 0 0 0
198 2 -6.445239935697227 -4.434859356261506 1.4954818614728567 0 0 0
213 2 -8.002500110727116 -5.873298032712143 2.8838068967104182 0 0 0
200 1 -3.4337600493032507 -4.559299768361798 1.410840299142592 0 0 0
706 1 -0.62041623964813 -4.6085454738156875 1.4018930315515157 0 0 0
204 2 -9.22859437505654 -1.6728164415196054 1.4270824204706332 0 0 0
339 2 -10.780704620925572 -0.11318710593397395 2.948696465376089 0 0 0
219 1 -10.876796681227471 -2.9556729962781483 2.938425103557375 0 0 0
206 1 -6.327700533417457 -1.6719688715408854 1.4601423637227695 0 0 0
341 1 -7.893670194092322 -0.15473388860472442 2.9520426591606967 0 0 0
208 1 -3.3977009297671446 -1.6668025221238207 1.3711659182775955 0 0 0
223 2 -4.69756527173536 -2.955262473772177 2.910649821317528 0 0 0
343 1 -4.8851097536600605 -0.07811443712060413 2.986622208748256 0 0 0
714 2 -0.45751962733509166 -1.6743808418235098 1.4174119912262042 0 0 0
212 2 -9.46266818289695 -4.351979545503687 4.519315290537172 0 0 0
211 1 -10.867389762366624 -5.913986170033546 3.1135760402148698 0 0 0
214 2 -6.4616035497579 -4.443645637090633 4.608873087894329 0 0 0
215 2 -4.798220698281445 -5.808749517396214 3.1020438325545103 0 0 0
216 2 -3.3687032136347894 -4.331860278650462 4.751969718807706 0 0 0
721 2 -1.898679106970424 -5.881911479270158 2.979459879506378 0 0 0
729 1 -1.9186986623827762 -3.1173148452516477 3.04307458151106 0 0 0
722 2 -0.33972467277996815 -4.651331667703268 4.599275734547931 0 0 0
220 2 -9.467205863931138 -1.517668789298569 4.661890679480967 0 0 0
221 1 -7.930991643055735 -3.017992085789598 3.091630579045198 0 0 0
222 2 -6.349876521850363 -1.5760730886171201 4.338882087490586 0 0 0
224 1 -3.400549251192918 -1.6120893785454762 4.614542760542545 0 0 0
730 2 -0.3275054062844613 -1.6718806276933118 4.400348125603898 0 0 0
849 2 -2.0320180825148304 -0.23201103192505293 2.971471893539239 0 0 0
355 1 -11.109071252253402 -0.07077499899369583 5.916800685013149 0 0 0
323 1 -10.861171989854181 -0.1726235348525691 0.012502502496073513 0 0 0
833 1 -1.8023651546477601 -0.1326331741593265 0.0010419659788702454 0 0 0
228 2 -9.488401843368221 -4.233648568457581 7.516589165930043 0 0 0
227 1 -10.893331369843201 -5.88857506832934 6.017036009167542 0 0 0
230 2 -6.354261107166406 -4.376816047055306 7.6527330828773374 0 0 0
229 2 -7.9264656150439 -5.91402336590314 6.261730209785075 0 0 0
232 1 -3.4490360652501417 -4.345771697425968 7.591748052498613 0 0 0
231 1 -4.930148879979271 -5.764539426946131 6.101435805547666 0 0 0
738 2 -0.2627287454107962 -4.495793173777574 7.547006620721972 0 0 0
762 2 -0.03029396847120416 -1.6355762436411743 10.38705516797544 0 0 0
745 1 -1.7020349665452608 -3.095074524757758 6.0083002372917855 0 0 0
236 1 -9.515591678525077 -1.5146827277063846 7.454503724760696 0 0 0
235 1 -10.997770293281631 -3.0162880246050325 5.965818429925947 0 0 0
238 1 -6.492734096008585 -1.5028015347667267 7.673665254312072 0 0 0
237 1 -7.914906702876333 -2.984018813649377 6.03252288353451 0 0 0
357 2 -7.796220340409133 -0.19170042780989338 6.07803360472493 0 0 0
239 2 -4.953087234209375 -2.7805096324340486 6.270486813190082 0 0 0
240 1 -3.22676171070105 -1.5339640306045228 7.482557334279413 0 0 0
359 1 -5.016183665262493 -0.1145455923118117 6.002353238873357 0 0 0
375 2 -4.697912687548456 -0.17017509954987967 8.804433248251879 0 0 0
865 2 -1.7714356754774845 -0.2956460476500059 6.007651567015798 0 0 0
746 1 -0.18000547592396313 -1.5603719647943035 7.433027746376405 0 0 0
244 2 -9.390262823334902 -4.325161308585234 10.558343668956535 0 0 0
243 2 -10.795531507754744 -5.89982224597775 8.986350846236835 0 0 0
245 1 -7.922525933812038 -5.733905218083459 9.107446290534737 0 0 0
246 2 -6.4371439699018005 -4.290246175406862 10.506267701874613 0 0 0
247 1 -4.9375864124342215 -5.783212705883762 9.11665328208932 0 0 0
248 2 -3.399908371952938 -4.404715625396916 10.42177039907931 0 0 0
754 2 -0.23885403817696324 -4.53710011388175 10.463441130475838 0 0 0
753 1 -1.8184821903076458 -5.895077911520192 9.057269713364333 0 0 0
649 1 -1.7932730541978255 -3.023634034372825 11.794574591881076 0 0 0
251 1 -10.995488056784128 -2.9380734164871645 9.046031226679673 0 0 0
252 2 -9.447970390564803 -1.4721414064644254 10.550245920304388 0 0 0
253 1 -8.010467062989479 -2.9610806220352 9.0788138708163 0 0 0
254 2 -6.544944287889627 -1.403280942511782 10.271463136739383 0 0 0
256 2 -3.304557942163336 -1.5002996625866167 10.49061570157026 0 0 0
255 1 -4.908302356415256 -2.9066204739831014 9.12996773675625 0 0 0
881 2 -1.6667575259778715 -0.07128670761066146 8.899963519464379 0 0 0
761 2 -1.8312277288569132 -2.981387375727567 8.879685475204349 0 0 0
371 2 -10.935478630201416 -0.019435074867538506 9.004360529310222 0 0 0
260 1 -9.355616186410918 1.3702644982316465 -10.291637179097448 0 0 0
262 2 -6.3793130532551805 1.3856950659880038 -10.140576578386185 0 0 0
269 1 -7.622222096607269 2.8082874322046525 -11.799701429916933 0 0 0
264 2 -3.307636212203286 1.3894769468836474 -10.373393245940676 0 0 0
279 1 -4.760074370061459 0.03401129219251649 -8.764737792023721 0 0 0
770 1 -0.21585224339919754 1.383836340428682 -10.314448141054454 0 0 0
777 2 -1.6672483536436147 2.782356413742149 -11.83619567448558 0 0 0
267 2 -10.899240816805662 2.884846928739385 -11.584980189034415 0 0 0
268 1 -9.194486864165492 4.34502308894356 -10.383077801710654 0 0 0
913 2 -1.8932898346609415 5.788701095214503 -8.960943764569901 0 0 0
270 2 -6.209031886164592 4.305320178440278 -10.295111051961415 0 0 0
794 2 -0.32429690130995587 4.468809158102381 -7.145116924716352 0 0 0
272 1 -3.24537864951351 4.216605163926106 -10.43217360775108 0 0 0
288 1 -3.1736666032190075 4.293535248039325 -7.263297177175257 0 0 0
778 1 -0.3049877084437083 4.348450823168578 -10.321005993894518 0 0 0
407 1 -4.649971440395002 5.754459979579302 -8.847536142073364 0 0 0
276 1 -9.341493945465128 1.3657848755943682 -7.301229330998599 0 0 0
283 1 -10.752420507908356 2.928263345632125 -8.819213188336015 0 0 0
299 2 -10.769078013462563 2.8178750485349187 -5.99756548317908 0 0 0
285 2 -8.018573184472775 2.817227873782413 -8.83086563780313 0 0 0
278 1 -6.328650323986648 1.4949538521333545 -7.311715394551706 0 0 0
301 2 -7.885289280338647 2.865229011714283 -5.933982798254685 0 0 0
287 2 -4.66214873939027 2.9114931309666225 -8.67210975925447 0 0 0
280 1 -3.1792873360778766 1.4569258941105587 -7.264479708060047 0 0 0
786 1 -0.33762670277683005 1.3890932884350826 -7.376970778972834 0 0 0
793 2 -1.6826101408992387 2.875801032836713 -8.821435771304103 0 0 0
403 2 -10.703488293668567 5.740229231445485 -8.981458956193903 0 0 0
284 1 -9.231218958844678 4.4131499581357625 -7.362554035958503 0 0 0
286 1 -6.2138081810186225 4.2316567449259175 -7.279000706924591 0 0 0
405 2 -7.590054876823146 5.744691197233192 -8.75962986902211 0 0 0
292 1 -9.325828250708504 1.3031566803807646 -4.525739773795342 0 0 0
315 1 -10.834005328473232 2.845554785964401 -2.965839402684106 0 0 0
294 1 -6.390975076350783 1.3206089660874742 -4.498093124549194 0 0 0
317 2 -8.060244311318366 2.762465659475442 -2.919823335318221 0 0 0
319 1 -4.829768114618526 2.7582135951453233 -2.9540931151682246 0 0 0
296 1 -3.232926110136454 1.2838975083332853 -4.436144701936752 0 0 0
303 2 -4.676974041051506 2.7696808850264762 -5.768902621618835 0 0 0
802 1 -0.37284094734154744 1.3718483237622976 -4.233266986050364 0 0 0
809 2 -1.7088437923833202 2.8233017629742854 -5.750995837667119 0 0 0
300 1 -9.307824467913035 4.300266561845056 -4.4680296973398 0 0 0
302 2 -6.301452742938111 4.201321483864548 -4.394130282932439 0 0 0
437 2 -7.903334535543431 5.760067671553597 -2.9740557067091107 0 0 0
304 1 -3.274391433089205 4.289360144432651 -4.326411970037502 0 0 0
423 2 -4.688997567642453 5.734380898317439 -5.80155017943797 0 0 0
810 1 -0.36520906876884085 4.279588618200468 -4.2943147844040634 0 0 0
945 2 -1.8091749543519506 5.743642241816431 -2.9382347716222443 0 0 0
308 1 -9.368938571887595 1.2668546752241496 -1.5276320267611385 0 0 0
929 1 -1.8226213789314907 5.893458161151491 -5.688963028755761 0 0 0
310 2 -6.314854225668267 1.2859857403096693 -1.5952053746182109 0 0 0
333 1 -7.812159799233466 2.7348099401485384 -0.054305920428491306 0 0 0
312 1 -3.461545394887354 1.213768203716603 -1.4798238690984373 0 0 0
421 1 -7.666757034190987 5.9053800000108065 -5.816327400371456 0 0 0
818 2 -0.19457925063126072 1.251572603393481 -1.391966152198003 0 0 0
825 2 -2.0526501289376182 2.757005504627122 -2.789461795160411 0 0 0
826 2 -0.20649743737639098 4.152370896743713 -1.3779760882163519 0 0 0
320 1 -3.366264284004398 4.236802083334708 -1.4233602606803943 0 0 0
316 1 -9.308347013914297 4.341575234568876 -1.4467730384514885 0 0 0
318 2 -6.256615098649362 4.181429646944891 -1.4297570815736258 0 0 0
439 2 -4.724317202910213 5.729942748877181 -2.8008922983823785 0 0 0
324 2 -9.332841744038662 1.3100256267912054 1.2456136145485532 0 0 0
347 1 -10.731351268333047 2.7717419011204174 2.8713803955028974 0 0 0
326 2 -6.37201412047175 1.3116482937880825 1.4509452521400572 0 0 0
349 2 -7.89639183763768 2.761017097621699 2.9469018233200086 0 0 0
328 2 -3.3865403467937814 1.1913991623753015 1.3021015846316815 0 0 0
351 1 -4.863662878388237 2.6087994338536817 2.9796074969072452 0 0 0
834 2 -0.41082768832636285 1.374056233367333 1.5560822550556697 0 0 0
857 1 -1.997831689561594 2.5911045920746405 2.9555852550012625 0 0 0
467 1 -10.622785891474015 5.656759990255182 2.9703412336903954 0 0 0
332 2 -9.249305121137374 4.335628008799987 1.2856882918377441 0 0 0
469 2 -7.835667622557235 5.807991709037876 3.0134050202803384 0 0 0
334 1 -6.357542098256734 4.2219726159647255 1.5640334897357686 0 0 0
336 2 -3.4096693018896085 4.075496943766171 1.5116262208019773 0 0 0
471 2 -4.833147456065123 5.498436194942918 3.083009563052354 0 0 0
842 1 -0.4126865051907647 4.16180907421112 1.559366431676511 0 0 0
977 1 -1.9451110345665505 5.652311688626962 2.9989495130894293 0 0 0
340 1 -9.35307063213985 1.311360913074693 4.553954219024214 0 0 0
342 2 -6.449188785288833 1.3636421473718023 4.5056611457918505 0 0 0
344 2 -3.4838800496061326 1.2200485758614594 4.589097356388689 0 0 0
873 2 -1.7510443485692795 2.6015351857023696 5.815644479081763 0 0 0
850 1 -0.28129311590168793 1.1188884812401245 4.426591423773816 0 0 0
348 2 -9.337864697424152 4.161036743435203 4.537463448545508 0 0 0
350 1 -6.404576829342023 4.214117679094452 4.465961988728049 0 0 0
352 1 -3.3404502732532064 4.131579738673677 4.535189328686437 0 0 0
993 2 -1.966463837142622 5.775151807261022 5.8192455909464655 0 0 0
858 2 -0.3963501176968073 4.114475865925006 4.228478384205196 0 0 0
483 2 -10.867198902897226 5.7180704926046095 5.866394237280537 0 0 0
331 1 -10.860278090772026 2.861255383502291 0.014208363198990121 0 0 0
335 1 -4.895423367170613 2.685395030205084 0.05168138269734737 0 0 0
841 1 -1.8644545312010432 2.67111971349071 0.007781146011868334 0 0 0
961 2 -1.8686324712799733 5.5128130724924995 0.06922823700097606 0 0 0
451 1 -10.871738417016969 5.751440922183516 0.0671334482209859 0 0 0
453 2 -7.533580989582811 5.8436601549503475 0.054694485623220594 0 0 0
455 1 -4.820799995220184 5.702110222631751 0.08487045153421233 0 0 0
356 2 -9.549249124699497 1.3154758477433048 7.238883289537097 0 0 0
363 1 -10.910375788253976 2.828391933136401 5.9792051174098795 0 0 0
890 2 -0.15221239714696408 4.278536165032388 10.406175700725692 0 0 0
358 2 -6.316686319139371 1.3509975346535417 7.565264216454193 0 0 0
365 1 -7.8826262137115775 2.781916478026597 6.121785817582615 0 0 0
360 1 -3.185876369145484 1.306081993841825 7.435263532534541 0 0 0
367 2 -4.905913715287035 2.912942660953212 5.9746978059788365 0 0 0
866 1 -0.2542297089027991 1.2451561214643734 7.282454967048244 0 0 0
503 2 -4.530108362258527 5.639213557945627 8.811551757557734 0 0 0
364 2 -9.52473304567755 4.257668063845756 7.57190401238065 0 0 0
366 1 -6.254323017307319 4.220812607404231 7.6500943613109955 0 0 0
485 2 -7.625577783601754 5.585685813561592 6.121188453507299 0 0 0
487 1 -4.770105670940967 5.63924144120595 6.029240136856695 0 0 0
368 1 -3.198388595882769 4.123050230983064 7.352706811098059 0 0 0
874 2 -0.29126846410412593 4.266030316369616 7.137478181788789 0 0 0
1009 1 -1.701215372287176 5.660525842035626 8.819017773700578 0 0 0
379 1 -10.871146902483224 2.6625744501828783 9.026523220421305 0 0 0
372 2 -9.282475477734057 1.3945671558571928 10.723315538314031 0 0 0
381 2 -7.936672535823701 2.7792612656257534 9.023620647121582 0 0 0
374 1 -6.210423199412991 1.3692054419047617 10.238933208602079 0 0 0
373 1 -8.135344465026806 0.05704889124275837 8.95696444302747 0 0 0
383 2 -4.5747458102685785 2.7605539790669096 8.88964207979079 0 0 0
376 1 -3.2010553707440836 1.3122970455790766 10.423317596278576 0 0 0
889 2 -1.6510112350187416 2.77751691102969 8.836980223375972 0 0 0
882 1 -0.1747422252704573 1.3239818075291923 10.406426306934254 0 0 0
499 1 -10.795201912206998 5.69219832579737 9.019850715288815 0 0 0
380 1 -9.322742349215646 4.216830557517271 10.574400280466172 0 0 0
501 2 -7.905034947049901 5.655427238704891 9.116462598646681 0 0 0
382 1 -6.090752700611823 4.245366809603964 10.242531619512706 0 0 0
384 1 -3.2014122957701034 4.180228527847814 10.395180403947657 0 0 0
271 2 -4.884976679475827 2.8056427918288094 11.75784597772703 0 0 -1
387 2 -10.861735098627657 5.885435633442994 11.818389379146124 0 0 -1
389 1 -7.581079575420958 5.638351549429787 11.752332094306837 0 0 -1
391 2 -4.745683571371901 5.768556939830775 11.783525520977518 0 0 -1
897 2 -1.7816529089457676 5.751509218962757 11.77575876906976 0 0 -1
388 2 -9.022751170998504 7.04796847496023 -10.503065612284216 0 0 0
395 1 -10.733926012503499 8.665708416190363 -11.61961620971925 0 0 0
390 1 -6.155422813177539 7.13470471286653 -10.462801898403056 0 0 0
413 1 -7.630917854761081 8.579062613874225 -8.981185275495172 0 0 0
392 1 -3.216753633808219 7.211921650162204 -10.493765486290021 0 0 0
415 2 -4.749677804867332 8.704985045692522 -9.209953616007454 0 0 0
921 2 -1.8908857732355164 8.750524467879771 -8.980160823274232 0 0 0
898 1 -0.43630465412656344 7.271518720749855 -10.33666144380831 0 0 0
396 2 -9.100242341094196 10.049764919172773 -10.425446937676606 0 0 0
19 1 -10.615153314457844 11.588220204646014 -9.085440336678102 0 0 0
3 1 -10.719763330643115 11.639505130857119 -11.816194058047921 0 0 0
21 2 -7.707427318314094 11.741523151407396 -9.0331020290557 0 0 0
398 1 -6.306819863911046 10.167462839180747 -10.550922048074925 0 0 0
23 1 -4.793225251984873 11.647098540534616 -9.069127292977981 0 0 0
400 1 -3.230941142632377 10.173981757367288 -10.542731234895719 0 0 0
906 1 -0.4979652451429455 10.279306002903136 -10.409382032911079 0 0 0
529 2 -1.9918103705036223 11.64564725027007 -9.02356617689629 0 0 0
411 2 -10.782990978587618 8.717462410472939 -8.928034252382412 0 0 0
404 2 -9.124686928463845 7.373575366365416 -7.454784278641228 0 0 0
406 2 -6.100319832228158 7.240122454812378 -7.385625708485803 0 0 0
429 1 -7.612583033934001 8.729973754598447 -5.978604641194115 0 0 0
408 2 -3.225981216343151 7.297846133741217 -7.2789528173984905 0 0 0
914 1 -0.47472133078740125 7.3400308629235065 -7.37699264976445 0 0 0
412 1 -9.069514609574947 10.15644664682519 -7.560982224198769 0 0 0
35 2 -10.53256693663305 11.524489222044982 -6.252338902356728 0 0 0
427 1 -10.631945191580787 8.790025186071594 -5.970039893045564 0 0 0
414 2 -6.185611367475382 10.203662558138712 -7.65978416538636 0 0 0
416 1 -3.3196853582848345 10.127316482075155 -7.4528350432708645 0 0 0
39 1 -4.883277820593935 11.60066624787654 -5.932610915408766 0 0 0
922 1 -0.5809958685078586 10.260974980269268 -7.399111991614322 0 0 0
420 2 -9.153213607065904 7.516825138586099 -4.43127603775768 0 0 0
419 2 -10.606690217116507 5.973771629959163 -5.908847104386133 0 0 0
435 1 -10.738589472434542 5.942091119391053 -2.903886859473667 0 0 0
422 2 -6.24432779676563 7.427074824547689 -4.268603224023204 0 0 0
954 2 -0.4895612778481232 10.573697614163247 -1.265922152816022 0 0 0
424 1 -3.374021176874424 7.339296982115574 -4.257140594731421 0 0 0
930 1 -0.4584491769378893 7.435434658410586 -4.147816160291137 0 0 0