LAMMPS data file via write_data, version 2 Aug 2023, timestep = 9300, units = metal

1024 atoms
2 atom types

-11.787935014987871 11.787935014987871 xlo xhi
-11.787935014987871 11.787935014987871 ylo yhi
-11.787935014987871 11.787935014987871 zlo zhi

Masses

1 55.847
2 26.982

Atoms # atomic

4 2 -9.148823813209983 -10.293672424294432 -10.327314914680027 0 0 0
11 1 -10.674051402138904 -8.877789464932539 -11.781594967060311 0 0 0
6 1 -6.313544525505827 -10.535561431718028 -10.344454082008202 0 0 0
8 1 -3.4118681999309133 -10.463600011259398 -10.339328129566042 0 0 0
31 2 -4.915074970097091 -9.034877791400962 -8.837375630265784 0 0 0
514 1 -0.5100305347837873 -10.451386134068237 -10.25109550737715 0 0 0
537 2 -1.9787672382193076 -8.951655638940588 -8.865727255228723 0 0 0
27 1 -10.594048276316283 -8.800464954069259 -8.895383087956501 0 0 0
12 2 -9.190826774923401 -7.3397734505049215 -10.39798223363075 0 0 0
29 1 -7.756997186081725 -8.807241753120675 -8.897466118493012 0 0 0
14 2 -6.262908675674489 -7.335550048716185 -10.370207353018872 0 0 0
16 1 -3.4511776811818304 -7.531081892582483 -10.348135364789526 0 0 0
522 1 -0.502440625237931 -7.461520910490416 -10.257063697524643 0 0 0
657 2 -2.0498125053659106 -5.996666175537644 -8.947480227367308 0 0 0
20 2 -9.187505197815227 -10.42369216533319 -7.429454796083584 0 0 0
43 2 -10.623417576847716 -8.855053949778632 -5.99412084674942 0 0 0
22 1 -6.329475952716806 -10.536896881447856 -7.425115758654716 0 0 0
24 1 -3.3686126876445543 -10.462289964820956 -7.439206307473019 0 0 0
47 1 -4.858058843539341 -8.901043066305425 -5.979793019755536 0 0 0
530 1 -0.5176761255957842 -10.396307397663831 -7.374548166905957 0 0 0
553 2 -2.0519008802664365 -8.892924308221703 -5.956756281433182 0 0 0
28 2 -9.139607944955102 -7.2766032285742455 -7.522990472462449 0 0 0
30 2 -6.2111486311940745 -7.2399475703810845 -7.479909758561541 0 0 0
45 2 -7.641433142088301 -8.825970525194501 -5.9934907766410035 0 0 0
32 1 -3.383799044061932 -7.4097754445403705 -7.449653045220768 0 0 0
673 2 -1.9330618126121082 -5.946043407984616 -5.994425864840024 0 0 0
538 1 -0.5377054268323453 -7.4754166750290265 -7.380681287148089 0 0 0
147 1 -10.68953951099771 -5.897402644300915 -8.922221002696645 0 0 0
521 2 -1.8593581864890671 -8.934574042538879 -11.725124220551683 0 0 1
705 2 -1.9804875660667336 -5.978815460577675 -0.004187705721928039 0 0 0
36 1 -9.21026446473739 -10.42074819192014 -4.5999053224969355 0 0 0
38 2 -6.359928920786616 -10.434916924098264 -4.51241666095656 0 0 0
40 1 -3.3932971709822253 -10.407133038216141 -4.433923858999934 0 0 0
570 1 -0.5087373647255872 -7.430393382070404 -1.494906042590966 0 0 0
546 1 -0.5139618450380378 -10.358164107188525 -4.453155312135495 0 0 0
64 1 -3.441020053832931 -7.407725791585446 -1.4955627373036766 0 0 0
59 2 -10.544191063121872 -8.840040476645571 -3.027462293665183 0 0 0
44 2 -9.116923466024852 -7.262871216148266 -4.507724925170558 0 0 0
46 1 -6.2753678323981985 -7.3035299077345766 -4.496035434320274 0 0 0
61 1 -7.768728294483463 -8.85925675124981 -3.0677411590016517 0 0 0
63 2 -4.885463346195083 -8.782289017677188 -3.1315277077978934 0 0 0
48 1 -3.3685629788772897 -7.364831081504485 -4.465872395114252 0 0 0
554 1 -0.5086513422831905 -7.432488350717216 -4.475325305635339 0 0 0
689 2 -1.9718819463621247 -5.975692047866785 -3.00066818555584 0 0 0
569 2 -1.9956977061966767 -8.879396704553072 -2.999962122572229 0 0 0
52 1 -9.190867813266069 -10.260520816212281 -1.3438598189213564 0 0 0
62 1 -6.271889741518416 -7.424016706813716 -1.459519968223401 0 0 0
54 2 -6.390919208597043 -10.187943940792517 -1.4569627764549269 0 0 0
60 2 -9.110536284920881 -7.37605775861396 -1.4188599090270608 0 0 0
56 1 -3.472770103876772 -10.32419736426427 -1.488768102784386 0 0 0
562 1 -0.5365007513291288 -10.32802783211401 -1.4751772006847068 0 0 0
199 2 -4.877789770355717 -5.969611148136426 -0.008000560512484774 0 0 0
68 1 -9.18336187146932 -10.336374015997988 1.546416287398561 0 0 0
70 1 -6.258714238895583 -10.347314901465534 1.5785064981217096 0 0 0
601 2 -1.974807612637507 -8.925937263288322 2.984298860675476 0 0 0
72 1 -3.4311825837006364 -10.35393096618021 1.5700174955996322 0 0 0
602 2 -0.5545786745468684 -7.4856417867211675 4.54196538261054 0 0 0
578 1 -0.5791093982292899 -10.381194612176442 1.4998829923006296 0 0 0
577 2 -2.000919356536952 -11.777351373178092 0.04098026411823916 0 0 0
76 1 -9.22938860003591 -7.347775704234328 1.67259071655579 0 0 0
75 2 -10.619766411449278 -8.795356250298976 0.19605688345676833 0 0 0
77 2 -7.727822414115043 -8.718030779920333 0.3320707219900969 0 0 0
78 1 -6.143874721228099 -7.371750814016655 1.6180536765941826 0 0 0
80 1 -3.4002026259701927 -7.414652007486184 1.5550222712636963 0 0 0
79 2 -4.826353995768875 -8.854542156035798 0.1198401758211257 0 0 0
586 1 -0.6012231696635907 -7.367460222045771 1.4808146730930496 0 0 0
585 2 -2.0015236668106677 -8.887163079622864 0.0037757598239449566 0 0 0
84 2 -9.186162648272342 -10.388045420478184 4.349393329006133 0 0 0
96 1 -3.435814234777437 -7.509545605855165 4.58247033255988 0 0 0
86 1 -6.31072278696473 -10.416658783141598 4.585618802441667 0 0 0
88 1 -3.432524870094844 -10.416736305299898 4.517267052337413 0 0 0
95 2 -4.912371187090681 -8.906132161248673 3.128366273037526 0 0 0
594 1 -0.5673714055035337 -10.420815253096603 4.484515518124688 0 0 0
94 1 -6.2536127691035 -7.365403415152984 4.625944118501341 0 0 0
91 1 -10.735454663398684 -8.868628837710535 3.0945057282520643 0 0 0
92 2 -9.244785688288058 -7.3445577374812006 4.473825327469789 0 0 0
93 1 -7.721079082672729 -8.841917886226126 3.0780393547522107 0 0 0
213 2 -7.651754202643477 -5.938459651351783 3.0503864175837294 0 0 0
215 2 -4.767652433469067 -5.950030696653158 3.157528290104134 0 0 0
100 1 -9.16230243292941 -10.419459523300574 7.418009525761165 0 0 0
102 1 -6.392127649613204 -10.506397053208175 7.415225770505529 0 0 0
104 1 -3.4160341560914516 -10.52704600080743 7.415269203550813 0 0 0
111 2 -4.92594250574597 -9.024376862756995 6.073517391698328 0 0 0
610 1 -0.4413180554313483 -10.45016409197706 7.442165609348488 0 0 0
617 2 -1.9224976757960484 -9.003848269224703 6.087553578815838 0 0 0
107 1 -10.668495240165027 -8.87518878382764 5.912006977612661 0 0 0
108 1 -9.206506875681356 -7.358887426562233 7.436505766965431 0 0 0
110 1 -6.308981665011867 -7.4101322015235835 7.415287911151568 0 0 0
109 2 -7.814228356397339 -8.879883484282086 5.996967680257221 0 0 0
112 2 -3.43785689873436 -7.496571792221536 7.536971481782524 0 0 0
618 2 -0.42441176903445665 -7.44582250238262 7.530229634611838 0 0 0
116 2 -9.243004250691333 -10.427069916013265 10.311168132579715 0 0 0
123 1 -10.677999963427224 -8.875983372463905 8.923694641161006 0 0 0
125 2 -7.743114130939563 -8.906799019593038 8.85569131740164 0 0 0
118 1 -6.417595132610128 -10.602030895794778 10.307785657118655 0 0 0
15 2 -5.028738353262188 -9.04488359011642 11.734057528243945 0 0 0
120 2 -3.4008406178733463 -10.474014142906094 10.307355529374203 0 0 0
626 1 -0.44161018172470107 -10.46526481638672 10.403519048718602 0 0 0
641 1 -1.8989030473241828 -5.922534626782162 11.786956873781184 0 0 0
124 2 -9.243616216639237 -7.314654326912747 10.276084892188361 0 0 0
126 2 -6.309552610232967 -7.286538859898904 10.247335479492598 0 0 0
13 1 -7.812764091229403 -8.81889243779664 11.732219872908125 0 0 0
127 1 -4.878576128343114 -8.948755241496155 8.953579056130971 0 0 0
128 2 -3.4019614762742147 -7.376710068649381 10.409846401604362 0 0 0
634 2 -0.3940379574094967 -7.430865895124688 10.439973265085959 0 0 0
633 1 -1.9434861944817774 -8.87929544809907 8.978664102842549 0 0 0
737 1 -1.8961792893453921 -5.936057982240636 6.123539931845773 0 0 0
753 1 -1.8941137601289033 -5.9391957941886515 8.962766819514592 0 0 0
132 2 -9.26139141250115 -4.412510745129203 -10.37495889065982 0 0 0
666 1 -0.38055177149416497 -1.5544254146370968 -7.382890564758746 0 0 0
785 2 -1.8190855665757362 -0.032583643372862035 -8.83008295831042 0 0 0
134 2 -6.312512088044315 -4.363438533284573 -10.367096912984989 0 0 0
149 1 -7.779076274124978 -5.8862891282596355 -8.967244597476 0 0 0
136 1 -3.364212183670005 -4.377325363096256 -10.340886434887732 0 0 0
151 1 -4.841635639648623 -5.8548270192146505 -8.95692035096201 0 0 0
642 2 -0.38882665010159123 -4.52572436005122 -10.251113944975815 0 0 0
155 1 -10.765540023283789 -3.002438962670163 -8.933517336778825 0 0 0
140 2 -9.278702549097618 -1.4965317984166926 -10.29653277335147 0 0 0
769 2 -1.7647676804546928 -0.058760545395591605 -11.698902166869859 0 0 0
157 1 -7.799819698813354 -2.9739993468571106 -8.93792588765647 0 0 0
142 1 -6.292089093826285 -1.4419710950717 -10.286515889642697 0 0 0
277 2 -7.746606505394267 -0.08753791971164236 -8.824359486177558 0 0 0
159 2 -4.855223611472396 -2.955171708379245 -8.904911571294718 0 0 0
144 1 -3.3439802225231485 -1.4190427332152435 -10.285501221834279 0 0 0
665 2 -1.9050405744968912 -2.9233748495827077 -8.932357178665388 0 0 0
650 1 -0.3158921546122637 -1.457518074825623 -10.21191483950356 0 0 0
649 1 -1.8051796043286386 -2.9459178061710434 -11.77409420976718 0 0 0
148 2 -9.207312182122958 -4.36480790144267 -7.50938387987176 0 0 0
163 1 -10.596381499755614 -5.874496369417032 -6.050373500681387 0 0 0
165 1 -7.777280098017323 -5.834781252218114 -6.0269655746065744 0 0 0
150 1 -6.240503104163313 -4.367034232772162 -7.42348508291893 0 0 0
167 2 -4.836339967965434 -5.8863727136956445 -5.947201320540336 0 0 0
152 1 -3.330900009456195 -4.417051263468595 -7.409395466713341 0 0 0
658 1 -0.4698400418623869 -4.466475884048406 -7.429275664000978 0 0 0
681 2 -1.884097896816586 -3.029735621301205 -5.989248706306215 0 0 0
263 2 -4.93731115156631 -0.011584220096122278 -11.720394835760104 0 0 0
171 1 -10.750382678872004 -3.0470186104353933 -5.95678359376232 0 0 0
156 1 -9.235453871937237 -1.4735547939781812 -7.399821213619563 0 0 0
173 2 -7.723729575309804 -2.931712416877308 -6.05094054343736 0 0 0
293 2 -7.737386604401213 -0.06843710320249653 -5.908243198824778 0 0 0
158 1 -6.2326677699860715 -1.4612761471366018 -7.370637237908602 0 0 0
295 2 -4.795359002918333 -0.06851951578052423 -5.918221294100477 0 0 0
160 1 -3.319368351632206 -1.5183028922970132 -7.400279106541085 0 0 0
175 2 -4.800452543585282 -2.9716464824242483 -5.954924784199347 0 0 0
801 2 -1.8315131989200903 -0.0976351515479109 -5.949532875589412 0 0 0
259 1 -10.833175202567231 -0.02001715622878737 -11.76548310185477 0 0 0
275 1 -10.841244468112922 -0.014169176978424023 -8.909256372129898 0 0 0
279 2 -4.785119366691126 -0.044995889600455315 -8.827280432849783 0 0 0
261 1 -7.898137916072107 -0.02247310574699145 -11.76657778261845 0 0 1
164 2 -9.134518597263058 -4.438076936089162 -4.508150182920873 0 0 0
179 1 -10.577596837054882 -5.886522475273791 -2.971990306522359 0 0 0
187 2 -10.77190716124279 -3.060848350351477 -3.0129381012945466 0 0 0
166 1 -6.223605312056233 -4.367295459454243 -4.4865456690329095 0 0 0
181 1 -7.736421244265658 -5.890244248720173 -2.9505451118852632 0 0 0
189 2 -7.637671803420535 -3.027341194815444 -2.9725443412347246 0 0 0
168 1 -3.353417208482668 -4.473387831331361 -4.4822339381131275 0 0 0
191 2 -4.7832240910531105 -2.998359269879111 -3.000470823140334 0 0 0
183 2 -4.911456744910581 -5.876936654620028 -2.98014148965446 0 0 0
674 1 -0.4669448019296974 -4.545141427498573 -4.486435805132235 0 0 0
697 2 -1.9234804079255994 -3.072341694056678 -2.997982696073647 0 0 0
172 1 -9.147706848994394 -1.5718202552943863 -4.4358644284376805 0 0 0
174 1 -6.2492929018339245 -1.5210065126362882 -4.458324049858141 0 0 0
309 2 -7.736134866121777 -0.08652815834247835 -2.9579770624000608 0 0 0
176 1 -3.325449931036177 -1.562024455876882 -4.485253045275101 0 0 0
311 2 -4.766627782592382 -0.09690944986121917 -2.988524478179922 0 0 0
682 1 -0.4555760297420128 -1.65756966274056 -4.520182651931186 0 0 0
817 2 -1.7884795147711534 -0.173733215682801 -3.0507743023537217 0 0 0
180 2 -9.159295567530373 -4.521248072864977 -1.4122826781306603 0 0 0
182 1 -6.205663275696921 -4.3866146445921785 -1.4527780652468765 0 0 0
184 1 -3.3568275538951475 -4.499118212609323 -1.4899670416315567 0 0 0
698 1 -0.5080043231216225 -1.676241020358186 -1.5244412839410355 0 0 0
207 2 -4.7402292260614685 -2.9798879752990963 -0.05554188174194868 0 0 0
690 1 -0.5324416069994815 -4.579929404347217 -1.5359339895033544 0 0 0
188 2 -9.275869240673224 -1.5597976681315886 -1.4659359519114636 0 0 0
307 1 -10.75082186778383 -0.10417030000795426 -2.8892770995722628 0 0 0
190 1 -6.2355063737834575 -1.5638714367337903 -1.5245720742628521 0 0 0
192 1 -3.3176172795941086 -1.5864280373590234 -1.5201155750114825 0 0 0
327 2 -4.839500933674978 -0.08980805201661127 -0.06833525174397673 0 0 0
833 2 -1.7747476454208748 -0.14632217695210403 -0.08016132946053733 0 0 0
291 2 -10.649460661758592 -0.1028033890163924 -5.872548667707752 0 0 0
196 2 -9.288143972608687 -4.547908080121154 1.5547696772911457 0 0 0
203 1 -10.703051627474451 -3.012224374972891 0.06672544651449965 0 0 0
195 1 -10.665935465870962 -5.88985282507065 0.08657238589096482 0 0 0
198 2 -6.178665984527858 -4.404600714493907 1.59798870218493 0 0 0
197 1 -7.728989038504378 -5.893848581158802 0.09835879179035638 0 0 0
200 1 -3.3868703642564055 -4.524803103741491 1.4682024794783939 0 0 0
706 1 -0.47683742078816177 -4.589995572714367 1.5254872914304736 0 0 0
713 2 -1.8165839340061376 -3.0530026898592277 0.10450695807294835 0 0 0
204 2 -9.2624788355572 -1.510329356439323 1.547847169514754 0 0 0
323 1 -10.768877646502213 -0.08314510087312017 0.033791456910178194 0 0 0
206 1 -6.218753005235884 -1.5358575152432565 1.4814349917311858 0 0 0
205 2 -7.695952003981971 -2.9418598853660693 0.10759961334170415 0 0 0
325 1 -7.868339102881408 -0.05847716325483812 0.03619938898939883 0 0 0
208 1 -3.3175871122280696 -1.5395135105477995 1.3910175927435058 0 0 0
714 1 -0.40272185350087597 -1.6020150475864239 1.496079653106617 0 0 0
212 2 -9.240058995650335 -4.3672755683113005 4.510809763203856 0 0 0
211 1 -10.741321590166962 -5.851925469083239 3.107397065471136 0 0 0
219 1 -10.73300524611411 -2.9671228728555685 3.0240315099733746 0 0 0
730 1 -0.36244014887415915 -1.5981846081656659 4.54311588462633 0 0 0
214 1 -6.21525769378156 -4.425978079523183 4.547912547810379 0 0 0
216 1 -3.4422885802702448 -4.387793528488413 4.57979045180491 0 0 0
849 2 -1.788327088730312 -0.26538490438347595 3.0364550325376567 0 0 0
722 2 -0.43271217609719925 -4.473802082868115 4.5128095708048015 0 0 0
721 2 -2.037366642706632 -5.874270770374706 3.098874147676179 0 0 0
729 1 -1.9057770167018047 -3.0149990927766734 2.985253342786017 0 0 0
339 1 -10.786192540206322 -0.07799777727209846 2.9744252539050753 0 0 0
220 2 -9.32072019357575 -1.4841127490491968 4.4699924296903895 0 0 0
221 1 -7.852141511605359 -2.974119011185427 3.0060763759799305 0 0 0
341 1 -7.825775601876629 -0.009061998775135293 2.9893978030013337 0 0 0
222 2 -6.310523229358188 -1.5526741091877763 4.343326942626182 0 0 0
223 2 -4.614882618689023 -2.8800526809772378 2.9960249918749633 0 0 0
224 1 -3.3248381411109493 -1.538013255516938 4.55350750209808 0 0 0
228 2 -9.28749620926774 -4.408666278821069 7.472231087586217 0 0 0
227 1 -10.723046767790397 -5.85564903634116 5.942753296042143 0 0 0
230 1 -6.292849394775301 -4.3793503830468525 7.477733071749873 0 0 0
229 2 -7.702553436871657 -5.843068576951208 6.099078469569774 0 0 0
232 2 -3.3902412153098482 -4.307993794612897 7.5556274610321905 0 0 0
231 2 -4.809068679880127 -5.869569017066122 6.070113113855302 0 0 0
762 2 -0.18214873280964808 -1.5895659429281872 10.407126695645797 0 0 0
738 2 -0.4307401201797136 -4.462665265325935 7.543929448366243 0 0 0
745 2 -1.889247452021845 -2.945511877691602 5.968238440384483 0 0 0
236 2 -9.289046072587135 -1.4925574139077438 7.467518888837268 0 0 0
235 1 -10.764085042299365 -2.946932732815141 5.965524314177257 0 0 0
355 1 -10.79395546049986 -0.05265227729961352 5.946082161190738 0 0 0
237 1 -7.850125235492103 -2.9096893543867566 5.959425323484902 0 0 0
238 1 -6.4004793107939255 -1.4750016053719213 7.51832660317774 0 0 0
357 2 -7.727944193574315 -0.055622196972912485 5.988780428647428 0 0 0
239 2 -4.977226196083158 -2.797860160228649 6.13372840753975 0 0 0
240 1 -3.3005344493339246 -1.4605541963747029 7.481312536771639 0 0 0
359 1 -4.848142579095393 -0.04673542268140234 5.937836696206228 0 0 0
375 2 -4.919552366837095 -0.026319223798093497 8.754910122451598 0 0 0
865 2 -1.8487909680611572 -0.10190502062544705 6.0470744423757035 0 0 0
746 1 -0.31921364517997114 -1.4897319012525454 7.402400794570017 0 0 0
243 1 -10.7510714913774 -5.846062594199203 8.920576776353398 0 0 0
244 2 -9.288244941548108 -4.370549903688668 10.353330373052351 0 0 0
246 2 -6.313963784338599 -4.373084317475936 10.269416244530198 0 0 0
245 1 -7.804040840018538 -5.813629940790155 8.956271354810468 0 0 0
133 1 -7.77694129371109 -5.861480589190454 11.753765557869121 0 0 0
247 1 -4.753832473268058 -5.879523980019712 8.950502729750955 0 0 0
248 2 -3.3231852792557595 -4.382485270786702 10.458265939460382 0 0 0
135 1 -4.894668474024515 -5.857545504770863 11.722292432465094 0 0 0
881 2 -1.7395204067670178 -0.08554445391681538 8.909485888944277 0 0 0
754 2 -0.3798270951178423 -4.485513029161151 10.427562172976433 0 0 0
143 1 -4.8712939279552465 -2.928257327053169 11.738539064048316 0 0 0
761 1 -1.8265558509628517 -2.9999148832933993 9.016735596359489 0 0 0
251 1 -10.796776481242587 -2.9359628174499646 8.89585603951488 0 0 0
252 2 -9.356926597727062 -1.4553289828273257 10.377126248762051 0 0 0
254 2 -6.425377449910503 -1.4616817470778953 10.354371871314768 0 0 0
253 1 -7.896645223809856 -2.9341537573522967 8.96536197151339 0 0 0
141 1 -7.852247404917186 -2.958983536547454 11.765375768468024 0 0 0
256 2 -3.3577944667725634 -1.4677240287614073 10.37306351875631 0 0 0
255 1 -4.820477275422953 -2.9139179474263437 9.014558225668411 0 0 0
371 1 -10.825134905525616 -0.04472904582097944 8.902544585752512 0 0 0
373 1 -7.9238980081210455 -0.007915209578175342 8.943340383509076 0 0 0
131 1 -10.708321166354578 -5.889480778784015 11.776012975560992 0 0 -1
139 1 -10.788048440635846 -2.9432600889245517 11.785753970732058 0 0 -1
260 2 -9.234657152397107 1.4633777966688972 -10.270572017608913 0 0 0
267 1 -10.84187711214962 2.765006128434524 -11.731541252191484 0 0 0
794 1 -0.34476876696861564 4.340045132551381 -7.359008072863081 0 0 0
913 2 -1.851690123449813 5.773578044786173 -8.82139269187016 0 0 0
262 1 -6.247648411641668 1.4615440629740777 -10.236221675003586 0 0 0
264 1 -3.289074055814547 1.4116580785036377 -10.297781093669343 0 0 0
288 1 -3.2959141160654504 4.318954951546229 -7.36598783485462 0 0 0
421 2 -7.733138847071743 5.756223235087698 -6.0130234754821545 0 0 0
286 1 -6.199772371980612 4.266155436682828 -7.322503680721994 0 0 0
770 1 -0.2976524504155106 1.4163508599004508 -10.27501681891936 0 0 0
268 1 -9.25492041476762 4.251909598275529 -10.275247710661821 0 0 0
387 2 -10.784914152017896 5.567277049377153 -11.786725450347925 0 0 0
270 1 -6.206886131097106 4.2872544348167825 -10.31032494228339 0 0 0
405 1 -7.726909759993668 5.752294762024347 -8.805519049624975 0 0 0
389 2 -7.764832654615719 5.7260119911291625 -11.632872918680926 0 0 0
407 2 -4.84425623890403 5.758004924821469 -8.823396478273759 0 0 0
272 1 -3.279895165243023 4.318430239084549 -10.288719773378896 0 0 0
778 1 -0.32177291428164123 4.314907144867294 -10.274497254170546 0 0 0
283 2 -10.837709797390776 2.822585739782313 -8.831373895279768 0 0 0
276 1 -9.20400164963387 1.4397941617753254 -7.345801136173454 0 0 0
285 2 -7.6868269660902975 2.9748255528050733 -8.780627094266658 0 0 0
278 1 -6.259645798572016 1.4055439804106349 -7.363584820359053 0 0 0
287 2 -4.748282597418837 2.8558441036757585 -8.827000248775436 0 0 0
280 1 -3.3036447416778256 1.395133975765894 -7.374112475733276 0 0 0
284 1 -9.240989939735991 4.222946497572741 -7.342520418922644 0 0 0
793 2 -1.8020258955582276 2.8602253122486037 -8.827000030002585 0 0 0
786 1 -0.35549217151132856 1.4096220808340878 -7.352676161200201 0 0 0
403 2 -10.649209149244973 5.704346416590885 -8.754060272490662 0 0 0
303 2 -4.780698122606205 2.82507363828023 -5.899876440298611 0 0 0
809 2 -1.85146179801558 2.847972123531155 -5.919605285575743 0 0 0
929 2 -1.8363392981998952 5.795772818523345 -5.89502988558839 0 0 0
897 2 -1.7953497557019584 5.755206222356194 -11.76098461920205 0 0 1
391 2 -4.7451227835867025 5.7566721969072026 -11.765844544620846 0 0 1
271 2 -4.762896254754075 2.863548297640398 -11.739082581482478 0 0 1
777 2 -1.7855343386835387 2.8399332739481915 -11.75320240533092 0 0 1
292 1 -9.189360327219141 1.3870444409453533 -4.443045015930113 0 0 0
299 2 -10.760879371924094 2.861049286228019 -5.83099442488028 0 0 0
294 1 -6.250721745960236 1.3671994699418846 -4.43570241504578 0 0 0
301 2 -7.726444389009632 2.809037033467588 -5.8774943232364185 0 0 0
296 1 -3.3079538424417154 1.3572952783463907 -4.464286190628609 0 0 0
945 2 -1.9706140073023068 5.847340156174477 -2.989685232744092 0 0 0
802 1 -0.42894333716864064 1.3509445479076676 -4.541165605695191 0 0 0
825 2 -1.7041079176630134 2.792818382696773 -3.0424584289598826 0 0 0
826 2 -0.3385210398161635 4.31129632015087 -1.2773276924352301 0 0 0
300 2 -9.285809609712802 4.387853691545724 -4.411190699414621 0 0 0
419 1 -10.84282009280034 5.823852400038998 -5.809355626883102 0 0 0
302 1 -6.279143263381705 4.243032348514812 -4.453899996915051 0 0 0
423 2 -4.733045910515186 5.733177294504682 -5.830098927224882 0 0 0
304 1 -3.2758157357250868 4.253623635958583 -4.463935357213466 0 0 0
439 1 -4.819227016101403 5.722900773126242 -2.890595457400411 0 0 0
810 1 -0.4256964761052244 4.388999567653353 -4.475287281209988 0 0 0
308 2 -9.29718517807804 1.3820073472147336 -1.443572964542395 0 0 0
315 1 -10.770551540496138 2.9299156285492725 -2.871683210519614 0 0 0
317 2 -7.833123791021005 2.8539753556225116 -2.9537190468567394 0 0 0
310 1 -6.275802822275127 1.3648846393764895 -1.5485229638584632 0 0 0
319 2 -4.788694987116687 2.8073272782330934 -2.9776166351433684 0 0 0
312 1 -3.266692358106231 1.286836593836201 -1.5769458360972366 0 0 0
818 2 -0.2161425472011546 1.3050577060894701 -1.5300408525866689 0 0 0
316 2 -9.34799238372373 4.378843248334822 -1.3886056614617404 0 0 0
435 1 -10.785612154930709 5.813856259884949 -2.883645689060689 0 0 0
437 1 -7.844028047221975 5.7965880389398325 -2.861548426394418 0 0 0
318 2 -6.34161987389361 4.238787240465417 -1.4661201200403837 0 0 0
320 2 -3.2188705795045447 4.1715869614355165 -1.4915615895668684 0 0 0
455 2 -4.651561689340062 5.661849696409218 -0.019501784632011347 0 0 0
324 2 -9.360859329098473 1.380569935444883 1.4611870623412364 0 0 0
347 1 -10.842250611351044 2.7362253610810856 2.861040610202789 0 0 0
331 1 -10.802001192108103 2.845560320518999 0.008806434715100571 0 0 0
326 2 -6.312266045816911 1.3303218365590401 1.4073448649399964 0 0 0
333 1 -7.846991924120733 2.883772461337067 0.045117116633960376 0 0 0
328 2 -3.309563388905407 1.3041670390284361 1.4586753963041488 0 0 0
351 1 -4.763798056022719 2.774373436219864 2.8840424931709245 0 0 0
335 1 -4.754244783403804 2.855185959176051 0.048929360061669556 0 0 0
834 2 -0.3537856435973564 1.317102829980741 1.5462621547308542 0 0 0
841 1 -1.7981618815338152 2.7844250358692095 0.029377390944785992 0 0 0
332 2 -9.37446934884285 4.2996078060475655 1.541979665289437 0 0 0
451 1 -10.772664592275401 5.789758073273292 0.02908875350145648 0 0 0
467 1 -10.83024775348577 5.77549469096215 2.8775769048121025 0 0 0
334 2 -6.281524660444832 4.334135422681175 1.4790214847783492 0 0 0
469 1 -7.757557203131822 5.7297428000949795 2.9017261640833776 0 0 0
453 1 -7.833320339844 5.72998870575438 0.025739527105319123 0 0 0
343 1 -4.813028567139593 0.0030349764212438566 2.985813356237415 0 0 0
336 2 -3.093166040827498 4.205565892532531 1.6588622972043565 0 0 0
842 1 -0.31225570920074225 4.2676899429506765 1.537252423070453 0 0 0
977 1 -1.8074868383263882 5.8312679025769105 3.0000663228049413 0 0 0
961 1 -1.8621330220206225 5.720242174581835 0.06315419997612692 0 0 0
340 2 -9.383810832424391 1.4439726533212673 4.43713365893295 0 0 0
349 2 -7.735087487460963 2.8485573419946935 2.9648195586821706 0 0 0
342 2 -6.258666278703667 1.4238156418602697 4.469412792077168 0 0 0
993 2 -1.8196046478149002 5.821796907297062 5.88606078972376 0 0 0
344 2 -3.2814074671339415 1.342069163177385 4.438866042788515 0 0 0
850 1 -0.31680360099708527 1.2970076837522213 4.5589357125448196 0 0 0
857 1 -1.8131672525760025 2.705597623218217 2.981244594607145 0 0 0
858 2 -0.35099824682275516 4.264943941920201 4.3733683724700025 0 0 0
483 2 -10.755738770082262 5.640758933692996 5.704302600247391 0 0 0
348 1 -9.334389266654966 4.2479874994798 4.308376944598208 0 0 0
485 2 -7.825181510370666 5.633365870940206 5.661702903947966 0 0 0
350 1 -6.207966836912093 4.296787105166399 4.469288197601819 0 0 0
471 2 -4.774332293450517 5.696262429282555 3.0691106668505683 0 0 0
352 1 -3.2874142360640044 4.300122751803101 4.549621734412675 0 0 0
356 2 -9.290801663366466 1.440942531795182 7.441559503174452 0 0 0
363 1 -10.80030330896064 2.8000243552926567 5.945744696980782 0 0 0
379 1 -10.809362486865602 2.764523535351306 8.864952266170118 0 0 0
358 1 -6.302016042711207 1.4570924804782401 7.420188781854496 0 0 0
381 1 -7.80983641741755 2.877499738971864 8.872533366600704 0 0 0
360 1 -3.2738193446836643 1.423771463219588 7.484642910070233 0 0 0
367 2 -4.765398741252158 2.838607820512642 5.947184623384849 0 0 0
383 2 -4.80561420642476 2.858178078497806 8.944149338213794 0 0 0
866 1 -0.28748965514163777 1.362288292862078 7.4357590881112525 0 0 0
889 2 -1.7883385620998342 2.822657934927042 8.899289920643433 0 0 0
364 2 -9.344184514769521 4.290855998982788 7.470581973997553 0 0 0
499 1 -10.856898893099178 5.684045590816108 8.876224906852187 0 0 0
366 2 -6.333227054375029 4.31703761153612 7.404596564173021 0 0 0
503 2 -4.71644269423498 5.775629848032288 8.908428839895551 0 0 0
368 1 -3.26489529420346 4.308694154227711 7.435571499048557 0 0 0
874 1 -0.32594656026484886 4.30546302883197 7.400005642302536 0 0 0
1009 2 -1.7794170156691904 5.7634027412917455 8.863455041418108 0 0 0
890 1 -0.3232235654201438 4.293761806631752 10.352511948827964 0 0 0
372 2 -9.307841232838891 1.4484104466015226 10.364052899411654 0 0 0
384 1 -3.263957433804483 4.30713173456557 10.35742139102035 0 0 0
374 1 -6.22936391477255 1.4438884225977213 10.373207834100395 0 0 0
269 2 -7.705341050982008 2.871574332203827 11.746128691862634 0 0 0
501 2 -7.880117755236368 5.724568189316596 9.005592819511985 0 0 0
376 1 -3.2955557282121375 1.377023211708013 10.370525683187244 0 0 0
382 1 -6.227607486793758 4.372257072488439 10.39046812483267 0 0 0
882 1 -0.2759854486125789 1.3623603765745094 10.373987088653495 0 0 0
380 1 -9.271837619940564 4.27524749827889 10.411858939333618 0 0 0
365 1 -7.873700695707671 2.848024503088619 5.89782850170874 0 0 0
873 2 -1.7681348799829246 2.8095286718853734 5.982788607280958 0 0 0
487 2 -4.719250525764755 5.770478827814827 5.952402427714803 0 0 0
388 1 -9.26152198638138 7.15859242749282 -10.284025535112612 0 0 0
395 1 -10.812564528675916 8.651990166791801 -11.712396373836551 0 0 0
390 1 -6.22294293285826 7.22102899892281 -10.340950206362205 0 0 0
413 2 -7.649133707504732 8.552303984611132 -8.784065418611402 0 0 0
392 1 -3.303360921369516 7.214454453192684 -10.311201020149626 0 0 0
415 2 -4.756055130717062 8.67178039108121 -8.87156073598294 0 0 0
898 1 -0.374160109943513 7.23343547317961 -10.279746694986668 0 0 0
921 2 -1.8685530121260603 8.703841665452153 -8.835830291722633 0 0 0
396 2 -9.349879287945416 10.009519803621796 -10.230013756680375 0 0 0
19 1 -10.670775648703687 11.646062494650744 -8.896744345341386 0 0 0
3 1 -10.69312202524083 11.711205330818318 -11.709348840864502 0 0 0
398 1 -6.308331854140883 10.096355604817296 -10.334649900997137 0 0 0
21 2 -7.749039221604935 11.567178507506107 -8.855087502682467 0 0 0
400 1 -3.350936828493852 10.14907738197661 -10.330247596207423 0 0 0
23 2 -4.845900387180161 11.603276852620704 -8.887353651635383 0 0 0
529 2 -1.9407392120127873 11.664201618062334 -8.852998902940334 0 0 0
906 1 -0.4369865696514277 10.183112192227773 -10.29640673248072 0 0 0
411 1 -10.86276799917338 8.66384680630389 -8.774334571948499 0 0 0
404 2 -9.305657401730592 7.328943222397019 -7.324401647017074 0 0 0
406 1 -6.1493556229456745 7.2065959277653135 -7.360577782220176 0 0 0
408 1 -3.3162932513918952 7.2326122688068475 -7.365262224838808 0 0 0
914 1 -0.40043780676305113 7.26208472455793 -7.347081879868937 0 0 0
412 1 -9.222753388583683 10.10414538808013 -7.387663541217442 0 0 0
35 2 -10.697010015422276 11.596639043078792 -5.979963913469675 0 0 0
37 2 -7.735354115963918 11.433574972922637 -5.926979953306927 0 0 0
414 1 -6.235925557526757 10.147802314537918 -7.425394107845768 0 0 0
416 1 -3.351452739689045 10.1862961373877 -7.383596260657483 0 0 0
39 2 -4.800187164984278 11.698198682914642 -5.986363951563276 0 0 0
922 1 -0.4647762983422827 10.224773049122748 -7.354652403446487 0 0 0
545 2 -1.904492163565486 11.705971122077546 -5.921940513523225 0 0 0
431 2 -4.845869071431629 8.735612687310608 -5.933565557716103 0 0 0
937 2 -1.9099034571932394 8.743625821277654 -5.908566876443562 0 0 0
905 2 -1.8284000816794983 8.676329710986618 -11.766258928512569 0 0 1
7 2 -4.896199154796927 11.55938418062021 -11.76961771640152 0 0 1
513 2 -1.8747257192105569 11.61586828719603 -11.751472513268075 0 0 1
420 2 -9.297401319989758 7.245926043227834 -4.363736477503891 0 0 0
427 1 -10.779529346471307 8.702037943052783 -5.8065856888138825 0 0 0
422 2 -6.319090835804151 7.19870344709059 -4.378231667369729 0 0 0
429 1 -7.77442806553455 8.64008197894757 -5.840135727186944 0 0 0
424 1 -3.317233848630166 7.3051266914194075 -4.46707561172816 0 0 0
53 1 -7.738628517762116 11.764019096724905 -2.90235972179411 0 -1 0
930 1 -0.4242167230961862 7.315262360879491 -4.412009258319591 0 0 0
51 2 -10.535603488074049 11.761681203096124 -2.898795533263439 0 -1 0
428 2 -9.150902977282447 10.108872305305567 -4.295170871893302 0 0 0